<?xml version="1.0" encoding="UTF-8" ?>
<VTKFile type="PolyData" version="0.1" order="LittleEndian">
<PolyData>
 <Piece NumberOfPoints="64" NumberOfVerts="1" NumberOfLines="0" NumberOfStrips="0" NumberOfPolys="0">
<PointData>
 <DataArray type="Float64" Name="speed" format="ascii">13.5524 12.9573 9.66976 1.14792e-11 1.58625e-10 12.5722 13.1878 13.1979 13.4558 11.7588 13.4395 13.4526 12.4936 13.6549 8.77703 1.24694e-08 4.21499 3.52172e-07 0.000208746 0.0107552 0.121536 7.74157 13.2312 12.7019 13.4983 12.7467 6.1575e-05 13.8373 6.03769 5.5611e-13 13.4922 12.7121 13.4899 12.7932 13.2145 13.5401 13.3133 10.4455 5.37433 0.752568 3.58334e-15 0.00180107 8.24932 3.21088 2.49306 12.5228 3.27422 13.4395 13.2574 13.5045 13.8364 12.5392 12.9952 12.8645 1.08005 13.4813 6.63097 13.0072 12.4579 13.3717 12.4643 13.4164 6.53352 12.5541</DataArray>
</PointData>
<CellData/>
<Points>
 <DataArray type="Float64" Name="Points" NumberOfComponents="3" format="ascii">919.568 681.012 0 694.291 727.154 0 458.546 828.923 0 932.722 679.25 0 926.487 681.967 0 797.524 693.255 0 756.095 703.07 0 712.362 722.968 0 658.973 742.206 0 639.857 750.353 0 595.185 770.472 0 567.19 786.684 0 516.72 804.171 0 487.366 816.661 0 456.214 833.497 0 920.412 684.747 0 438.422 841.065 0 914.506 687.641 0 908.994 692.821 0 901.748 690.696 0 894.998 690.4 0 887.437 690.171 0 872.999 693.036 0 840.68 692.243 0 828.76 681.977 0 536.121 788.089 0 937.083 670.971 0 779.029 691.454 0 462.188 821.484 0 1046.78 707.263 0 1007.89 651.085 0 474.957 845.277 0 603.338 789.389 0 707.297 747.391 0 813.227 716.67 0 893.897 716.93 0 941.408 717.803 0 1063.58 739.253 0 1123.02 767.949 0 1144.52 780.576 0 939.604 711.337 0 939.403 713.433 0 1090.22 748.683 0 978.337 646.281 0 975.939 648.646 0 951.713 624.371 0 981.98 640.773 0 733.602 721.266 0 758.536 712.696 0 819.721 701.915 0 881.821 703.203 0 936.384 707.025 0 1020.46 720.979 0 1097.13 741.642 0 1137.76 767.63 0 1082.9 721.793 0 1128.46 756.597 0 879.95 599.093 0 883.017 597.859 0 889.203 618.559 0 905.869 627.41 0 929.207 658.261 0 1002.17 712.931 0 1056.26 716.123 0</DataArray>
</Points>
<Verts>
 <DataArray type="Int64" Name="connectivity" format="ascii">0 1 2 3 4 5 6 7 8 9 10 11 12 13 14 15 16 17 18 19 20 21 22 23 24 25 26 27 28 29 30 31 32 33 34 35 36 37 38 39 40 41 42 43 44 45 46 47 48 49 50 51 52 53 54 55 56 57 58 59 60 61 62 63</DataArray>
 <DataArray type="Int64" Name="offsets" format="ascii">64</DataArray>
</Verts>
<Lines>
 <DataArray type="Int64" Name="connectivity" format="ascii"/>
 <DataArray type="Int64" Name="offsets" format="ascii"/>
</Lines>
<Stripes>
 <DataArray type="Int64" Name="connectivity" format="ascii"/>
 <DataArray type="Int64" Name="offsets" format="ascii"/>
</Stripes>
<Polys>
 <DataArray type="Int64" Name="connectivity" format="ascii"/>
 <DataArray type="Int64" Name="offsets" format="ascii"/>
</Polys>
</Piece>
</PolyData>
</VTKFile>