<?xml version="1.0" encoding="UTF-8" ?>
<VTKFile type="PolyData" version="0.1" order="LittleEndian">
<PolyData>
 <Piece NumberOfPoints="129" NumberOfVerts="1" NumberOfLines="0" NumberOfStrips="0" NumberOfPolys="0">
<PointData>
 <DataArray type="Float64" Name="speed" format="ascii">0.000128771 0.0248738 0.129799 13.2127 1.09293 0.00376315 0.0010674 0.00107421 0.0080031 0.00821142 0.0129856 0.0103054 0.0655259 0.0544751 0.0866316 0.106149 0.0730466 0.0579772 0.606917 0.365061 0.260155 11.4278 13.2569 13.7786 13.3458 12.5997 13.4867 12.4045 12.1162 6.01081 0 8.29267 5.27015 6.99189 6.2984 4.54114 0 1.76512 8.50967 7.12454 2.76986 1.08431 3.58773 1.81153 4.14599 4.73955 0.210113 3.4902e-15 12.1695 0 1.6687e-13 0 0 2.88565e-16 0.131277 0.00136789 0.000190462 2.74061e-12 0.185851 2.11825 4.20206e-11 2.23769 7.40035e-11 0.933349 3.13776 0.688844 2.05352 5.29103e-10 1.64112 7.1031e-09 0.732905 1.8846e-08 1.81119e-06 9.12211e-06 0.220042 6.09152e-05 13.8286 13.3238 3.16264 3.41409 7.20258 5.482 13.482 13.7056 13.3206 13.3634 13.0956 5.55926 12.853 12.8438 12.74 13.0577 13.5944 12.8275 13.8823 13.6078 9.72284 8.80503 3.58529 1.24598e-10 0.000425653 0.0514383 0.0726608 13.4193 1.20935 3.37823e-09 5.72539e-13 2.5369e-07 5.92898e-07 7.00458e-07 6.12346 0.0214669 7.38824 1.22196e-13 8.13196e-13 1.97309e-07 5.14913e-05 0.0716964 13.7087 1.90177 6.27702e-16 6.33737e-13 3.50935e-13 9.14965e-09 3.23177e-06 0.00275779 5.293 11.5887 5.64219</DataArray>
</PointData>
<CellData/>
<Points>
 <DataArray type="Float64" Name="Points" NumberOfComponents="3" format="ascii">808.17 692.217 0 774.475 697.657 0 754.434 703.637 0 638.895 750.763 0 432.114 840.169 0 808.382 695.515 0 801.367 692.88 0 794.562 693.544 0 801.637 696.171 0 787.787 694.392 0 781.137 696.023 0 794.883 696.827 0 788.17 697.693 0 767.768 699.301 0 781.443 699.344 0 774.704 700.997 0 767.943 702.656 0 761.137 701.349 0 761.263 704.793 0 753.92 707.302 0 747.841 705.903 0 736.802 709.696 0 712.94 719.123 0 674.831 735.447 0 631.308 757.58 0 598.521 768.929 0 559.337 786.441 0 515.422 808.311 0 475.545 821.691 0 444.64 834.84 0 432.399 843.628 0 1012.77 665.674 0 992.959 652.103 0 952.447 668.994 0 940.781 675.855 0 928.993 680.875 0 915.503 690.794 0 978.136 650.643 0 1040.18 680.825 0 943.918 678.063 0 917.751 686.103 0 968.923 655.457 0 908.047 689.657 0 897.372 690.498 0 961.712 661.406 0 930.742 683.718 0 888.594 690.206 0 881.585 689.993 0 963.568 664.156 0 908.995 692.821 0 874.786 689.788 0 921.617 687.816 0 902.095 693.986 0 916.508 693.943 0 902.42 697.278 0 909.771 696.025 0 895.083 693.705 0 867.987 689.582 0 888.216 693.497 0 886.026 696.727 0 861.465 690.306 0 875.678 693.118 0 855.398 692.59 0 866.578 692.842 0 858.891 695.964 0 848.59 695.725 0 840.622 695.54 0 848.599 692.43 0 830.919 695.314 0 841.801 692.27 0 822.919 695.26 0 835.002 692.109 0 828.203 691.949 0 821.838 691.976 0 815.367 695.382 0 815.003 692.085 0 908.157 679.858 0 614.024 753.936 0 432.715 834.797 0 987.791 637.773 0 980.363 647.555 0 969.652 651.034 0 869.745 682.3 0 551.809 781.002 0 1223.48 798.803 0 1207.1 788.423 0 834.975 716.259 0 899.405 549.825 0 1178.66 770.4 0 1163.51 760.798 0 473.827 845.768 0 526.042 823.038 0 674.347 760.154 0 747.491 731.822 0 853.729 716.327 0 929.041 717.457 0 1059.41 738.027 0 1091.03 749.158 0 1136.45 775.835 0 940.45 689.048 0 941.122 691.038 0 941.265 693.215 0 941.061 695.468 0 948.715 718.775 0 1143.92 780.223 0 950.487 707.696 0 943.69 707.402 0 957.285 707.983 0 964.082 708.272 0 978.155 638.228 0 884.869 545.2 0 1007.78 720.236 0 972.405 708.625 0 1047.46 722.326 0 1054.25 722.635 0 1061.05 722.945 0 1067.24 723.011 0 1072.73 722.953 0 1088.14 734.665 0 1137.1 767.14 0 1047.76 715.736 0 1047.91 712.436 0 1054.55 716.045 0 1054.7 712.745 0 1061.35 716.355 0 1061.5 713.055 0 1068.66 716.482 0 1112.03 744.381 0 1131.11 758.566 0</DataArray>
</Points>
<Verts>
 <DataArray type="Int64" Name="connectivity" format="ascii">0 1 2 3 4 5 6 7 8 9 10 11 12 13 14 15 16 17 18 19 20 21 22 23 24 25 26 27 28 29 30 31 32 33 34 35 36 37 38 39 40 41 42 43 44 45 46 47 48 49 50 51 52 53 54 55 56 57 58 59 60 61 62 63 64 65 66 67 68 69 70 71 72 73 74 75 76 77 78 79 80 81 82 83 84 85 86 87 88 89 90 91 92 93 94 95 96 97 98 99 100 101 102 103 104 105 106 107 108 109 110 111 112 113 114 115 116 117 118 119 120 121 122 123 124 125 126 127 128</DataArray>
 <DataArray type="Int64" Name="offsets" format="ascii">129</DataArray>
</Verts>
<Lines>
 <DataArray type="Int64" Name="connectivity" format="ascii"/>
 <DataArray type="Int64" Name="offsets" format="ascii"/>
</Lines>
<Stripes>
 <DataArray type="Int64" Name="connectivity" format="ascii"/>
 <DataArray type="Int64" Name="offsets" format="ascii"/>
</Stripes>
<Polys>
 <DataArray type="Int64" Name="connectivity" format="ascii"/>
 <DataArray type="Int64" Name="offsets" format="ascii"/>
</Polys>
</Piece>
</PolyData>
</VTKFile>