<?xml version="1.0" encoding="UTF-8" ?>
<VTKFile type="PolyData" version="0.1" order="LittleEndian">
<PolyData>
 <Piece NumberOfPoints="196" NumberOfVerts="1" NumberOfLines="0" NumberOfStrips="0" NumberOfPolys="0">
<PointData>
 <DataArray type="Float64" Name="speed" format="ascii">6.73827e-07 5.42479e-05 0.014117 0.0233038 0.29329 1.39 1.86575 1.72955 1.4742 5.01318 0.470541 0.0981123 0.0207385 4.90763e-05 9.3047e-06 4.12894 12.8779 12.5682 13.8518 12.8136 13.44 13.0735 0 0 0 2.65566e-16 0 2.76003e-16 2.71725e-15 1.20583e-15 4.96591e-16 1.21065e-14 13.4342 12.8312 1.354e-13 12.6475 13.0354 1.43783e-12 13.4828 13.1439 13.086 4.1942e-10 7.61812e-10 12.7549 12.7673 13.8572 7.41486e-10 13.7255 1.69943e-07 3.8074e-07 0 0 0 3.39326e-11 3.53517e-06 3.98385e-09 2.84139e-05 9.72232e-07 0.000185938 6.55141e-16 4.32557e-06 0.000959744 0.00123078 3.2682e-07 0.000252931 0.00182022 0.0180771 0.0062176 0.0354663 0.0463974 0.169382 0.580518 0.476573 2.89478 0.517516 0.9436 1.41292 0.797404 0.836246 2.05558 1.17443 0.572815 2.32252 0.528272 0.70637 0.793086 0.216078 0.580299 0.417586 0.0975515 0.679478 0.0187391 0.915938 0.0742327 0.46053 0.246613 0.434055 1.19956 0.418945 0.737954 1.08815 0.791159 0.901423 3.9461 0.976748 7.34242 0.648277 2.72801 3.11873 4.24441 7.06805 6.91214 2.56 0.526307 7.53886 4.01567 2.9652 0.175892 0.748606 0.183771 1.13916 1.06895 0.836652 0.0481148 0.623159 0.0106472 1.64428 0.557392 0.00214036 0.370103 3.1594 0.00030631 0.649966 1.60339 0.417391 3.51312e-05 0.80152 0.0878305 2.58468e-06 0.641657 0.125695 0.000556966 0.31969 2.63241 6.99918 1.78453 13.4804 13.0219 1.10462 1.26036 0.297944 9.72352e-16 1.0591e-05 7.94773e-13 13.1177 8.57285 3.07236e-11 11.2008 13.3874 13.0284 13.7227 12.8085 10.6426 7.35623 1.43063 13.1316 12.7479 9.49496 0 1.94035e-15 1.56907e-08 13.402 12.7947 10.8575 10.2891 0.00275602 13.6053 13.0352 13.1786 13.0288 12.7657 7.66819e-06 0.000192 0.253171 12.4638 8.04237 0.0547631 0.000582281 12.8418 13.3061 8.21515e-06 3.01483e-05 0.0391393 13.8447 9.49641 2.3456</DataArray>
</PointData>
<CellData/>
<Points>
 <DataArray type="Float64" Name="Points" NumberOfComponents="3" format="ascii">821.838 691.976 0 801.367 692.88 0 774.505 697.649 0 754.713 703.541 0 734.494 710.489 0 713.508 718.878 0 691.883 728.18 0 659.837 741.838 0 635.75 752.103 0 598.94 768.735 0 561.72 785.455 0 541.966 793.626 0 522.95 801.52 0 497.895 812.181 0 479.121 820.169 0 439.231 837.141 0 1550.02 1026.23 0 1526.21 1014.65 0 1485.39 993.915 0 1435.37 957.285 0 1344.58 889.408 0 1320.32 869.093 0 932.722 679.25 0 926.487 681.967 0 920.412 684.747 0 914.506 687.641 0 908.226 689.612 0 901.749 690.696 0 895.183 690.405 0 888.384 690.199 0 881.585 689.993 0 874.786 689.788 0 1505.61 1004.63 0 1394.58 922.721 0 867.987 689.582 0 1340.85 882.922 0 1521.64 1008.75 0 861.465 690.306 0 1544.27 1019.76 0 1435.79 961.73 0 1410.37 936.486 0 855.398 692.59 0 848.599 692.43 0 1454.56 971.644 0 1499.54 998.004 0 1374.02 906.577 0 841.801 692.27 0 1391.26 924.205 0 835.002 692.109 0 828.203 691.949 0 935.362 685.3 0 934.042 682.28 0 927.807 684.997 0 921.617 687.816 0 815.003 692.085 0 915.503 690.794 0 808.17 692.217 0 908.995 692.821 0 794.564 693.544 0 929.127 688.017 0 902.095 693.986 0 787.792 694.391 0 781.152 696.019 0 922.83 690.889 0 895.083 693.705 0 888.282 693.499 0 767.831 699.286 0 881.474 693.293 0 874.662 693.087 0 867.795 692.879 0 748.195 705.781 0 861.162 693.826 0 853.91 695.849 0 845.455 695.652 0 741.533 708.071 0 834.942 695.407 0 827.106 695.238 0 819.36 695.317 0 727.576 712.867 0 811.701 695.441 0 802.22 696.114 0 720.347 715.922 0 793.948 696.918 0 705.772 722.22 0 784.093 698.694 0 698.92 725.18 0 776.58 700.537 0 769.546 702.263 0 762.485 704.376 0 755.603 706.723 0 683.434 731.78 0 749.092 708.961 0 675.733 735.063 0 742.607 711.19 0 668.288 738.236 0 736.116 713.421 0 729.377 715.737 0 651.918 745.213 0 715.377 721.665 0 722.46 718.604 0 644.309 748.455 0 707.728 724.97 0 700.768 727.978 0 626.901 755.886 0 693.283 731.167 0 615.872 760.903 0 685.726 734.388 0 677.934 737.709 0 587.516 774.018 0 668.875 741.57 0 657.712 746.327 0 644.64 751.898 0 577.307 778.597 0 568.503 782.497 0 629.788 758.228 0 613.338 765.715 0 603.082 770.46 0 554.92 788.268 0 593.394 774.942 0 548.449 790.945 0 585.764 778.455 0 577.9 781.939 0 569.6 785.616 0 535.579 796.268 0 562.129 788.854 0 529.248 798.887 0 554.881 791.854 0 546.607 795.278 0 516.672 804.192 0 539.776 798.105 0 533.017 800.902 0 504.153 809.518 0 523.321 804.951 0 515.949 808.087 0 507.646 811.619 0 491.637 814.844 0 500.803 814.53 0 493.703 817.55 0 485.379 817.506 0 487.226 820.306 0 480.211 823.289 0 472.863 822.832 0 473.667 826.073 0 466.072 825.721 0 447.511 837.199 0 434.041 842.929 0 856.435 682.195 0 606.225 757.31 0 427.343 838.019 0 1048.38 678.373 0 1047.01 674.647 0 1045.66 672.931 0 1041.8 671.26 0 937.093 670.973 0 912.542 675.593 0 503.755 802.708 0 1043.73 672.095 0 943.159 602.292 0 650.646 769.334 0 738.458 735.321 0 858.229 716.395 0 967.758 721.316 0 1054.91 736.705 0 1102.01 755.609 0 1143.75 780.124 0 471.487 846.787 0 576.634 801.014 0 867.815 590.7 0 939.604 711.337 0 939.404 713.429 0 939.277 715.522 0 1010.02 726.955 0 1250.72 808.699 0 961.701 708.17 0 981.49 708.993 0 974.514 643.737 0 1256.11 826.199 0 706.598 732.642 0 769.286 709.13 0 794.679 703.477 0 857.018 702.487 0 1008.68 720.289 0 1015.47 720.687 0 1047.69 722.336 0 1081.55 729.228 0 1122.31 756.139 0 761.256 701.308 0 510.412 806.855 0 681.951 739.586 0 880.803 600.887 0 1009.07 713.699 0 1047.76 715.736 0 1047.93 712.436 0 1061.25 716.35 0 1113.66 745.595 0 1136.75 766.875 0</DataArray>
</Points>
<Verts>
 <DataArray type="Int64" Name="connectivity" format="ascii">0 1 2 3 4 5 6 7 8 9 10 11 12 13 14 15 16 17 18 19 20 21 22 23 24 25 26 27 28 29 30 31 32 33 34 35 36 37 38 39 40 41 42 43 44 45 46 47 48 49 50 51 52 53 54 55 56 57 58 59 60 61 62 63 64 65 66 67 68 69 70 71 72 73 74 75 76 77 78 79 80 81 82 83 84 85 86 87 88 89 90 91 92 93 94 95 96 97 98 99 100 101 102 103 104 105 106 107 108 109 110 111 112 113 114 115 116 117 118 119 120 121 122 123 124 125 126 127 128 129 130 131 132 133 134 135 136 137 138 139 140 141 142 143 144 145 146 147 148 149 150 151 152 153 154 155 156 157 158 159 160 161 162 163 164 165 166 167 168 169 170 171 172 173 174 175 176 177 178 179 180 181 182 183 184 185 186 187 188 189 190 191 192 193 194 195</DataArray>
 <DataArray type="Int64" Name="offsets" format="ascii">196</DataArray>
</Verts>
<Lines>
 <DataArray type="Int64" Name="connectivity" format="ascii"/>
 <DataArray type="Int64" Name="offsets" format="ascii"/>
</Lines>
<Stripes>
 <DataArray type="Int64" Name="connectivity" format="ascii"/>
 <DataArray type="Int64" Name="offsets" format="ascii"/>
</Stripes>
<Polys>
 <DataArray type="Int64" Name="connectivity" format="ascii"/>
 <DataArray type="Int64" Name="offsets" format="ascii"/>
</Polys>
</Piece>
</PolyData>
</VTKFile>