<?xml version="1.0" encoding="UTF-8" ?>
<VTKFile type="PolyData" version="0.1" order="LittleEndian">
<PolyData>
 <Piece NumberOfPoints="102" NumberOfVerts="1" NumberOfLines="0" NumberOfStrips="0" NumberOfPolys="0">
<PointData>
 <DataArray type="Float64" Name="speed" format="ascii">13.8942 12.8228 12.8554 6.81208 4.52184 5.63871 0.327018 5.65145 6.05558 5.86057 2.77778 4.39544 5.43068 1.49763 4.9948 7.1913 2.55556 0.418535 0 1.31784 0.229925 0.0546316 3.85364 0 0.18989 1.32698 0.0273296 0.684475 4.04837 1.15309e-15 2.65921 6.92586e-13 0.687649 1.11289 1.31035e-08 0.000558971 3.23878 2.22381 10.7342 12.6585 13.5086 12.4936 13.2445 12.9969 12.5151 13.3211 13.6184 13.5734 8.20118 4.33891 12.7089 13.5828 13.1917 1.59315 13.8233 12.8924 9.14998 4.46877 6.05221 12.937 13.7173 10.902 9.50672 11.2596 12.9203 13.2405 12.7768 8.97082 8.58469 12.0595 13.5852 8.9182 4.60171 0 1.47062e-05 6.47884e-06 0.291778 1.33678 12.4402 1.24167 7.98139e-08 1.4809e-09 5.20311e-05 5.64507e-16 9.27265e-08 1.75993 8.84904e-16 1.17558e-15 2.15621e-11 5.76797e-07 0.0217503 9.39081 3.15299 6.80427 1.00902e-15 1.03722e-15 1.63314e-12 3.88616e-09 0.000257013 4.80739 10.3851 7.31889</DataArray>
</PointData>
<CellData/>
<Points>
 <DataArray type="Float64" Name="Points" NumberOfComponents="3" format="ascii">544.1 792.744 0 892.14 624.737 0 770.314 698.677 0 1008.07 662.396 0 980.179 649.994 0 962.767 660.524 0 947.643 672.409 0 940.489 675.982 0 925.454 682.417 0 938.104 680.559 0 912.595 688.342 0 992.671 651.907 0 978.011 654.3 0 902.556 690.674 0 961.053 666.259 0 951.682 673.799 0 893.005 690.339 0 903.075 693.952 0 916.598 690.316 0 883.554 690.053 0 875.377 689.805 0 910.148 692.521 0 925.781 685.879 0 895.008 693.703 0 868.206 689.588 0 899.446 697.21 0 861.485 690.285 0 887.681 693.481 0 879.23 693.225 0 855.398 692.59 0 868.181 692.891 0 848.599 692.43 0 859.468 695.613 0 851.875 695.801 0 841.801 692.27 0 835.001 692.109 0 842.5 695.583 0 831.453 695.326 0 824.751 691.93 0 800.317 696.299 0 737.403 709.49 0 707.605 725.024 0 683.274 731.849 0 651.854 748.824 0 597.082 769.594 0 563.368 788.342 0 525.261 804.127 0 482.724 818.636 0 452.031 831.695 0 438.516 841.026 0 1035.5 678.377 0 889.289 682.455 0 595.583 761.914 0 428.812 836.763 0 1187.77 776.173 0 1153 754.135 0 1113.59 723.468 0 990.781 635.779 0 985.399 643.424 0 836.042 682.035 0 566.598 774.453 0 1129.85 735.81 0 1102.54 715.396 0 934.988 592.493 0 486.69 840.169 0 516.325 827.268 0 625.482 779.749 0 866.441 716.518 0 881.928 716.75 0 904.418 717.088 0 1005.06 726.294 0 1082.88 744.929 0 1129.41 771.703 0 1145.51 781.159 0 940.45 689.048 0 941.122 691.038 0 941.259 693.281 0 941.021 695.911 0 945.676 718.37 0 1143.34 779.88 0 950.487 707.696 0 943.69 707.402 0 957.285 707.983 0 974.515 643.738 0 978.155 638.228 0 878.704 532.838 0 1047.46 722.326 0 1054.4 719.341 0 1061.05 722.945 0 1067.24 723.011 0 1072.73 722.952 0 1080.92 728.708 0 1134.52 765.219 0 995.01 710.922 0 1047.76 715.736 0 1047.91 712.436 0 1054.55 716.045 0 1054.7 712.745 0 1061.35 716.355 0 1064.03 713.171 0 1111.17 743.742 0 1126.86 755.411 0</DataArray>
</Points>
<Verts>
 <DataArray type="Int64" Name="connectivity" format="ascii">0 1 2 3 4 5 6 7 8 9 10 11 12 13 14 15 16 17 18 19 20 21 22 23 24 25 26 27 28 29 30 31 32 33 34 35 36 37 38 39 40 41 42 43 44 45 46 47 48 49 50 51 52 53 54 55 56 57 58 59 60 61 62 63 64 65 66 67 68 69 70 71 72 73 74 75 76 77 78 79 80 81 82 83 84 85 86 87 88 89 90 91 92 93 94 95 96 97 98 99 100 101</DataArray>
 <DataArray type="Int64" Name="offsets" format="ascii">102</DataArray>
</Verts>
<Lines>
 <DataArray type="Int64" Name="connectivity" format="ascii"/>
 <DataArray type="Int64" Name="offsets" format="ascii"/>
</Lines>
<Stripes>
 <DataArray type="Int64" Name="connectivity" format="ascii"/>
 <DataArray type="Int64" Name="offsets" format="ascii"/>
</Stripes>
<Polys>
 <DataArray type="Int64" Name="connectivity" format="ascii"/>
 <DataArray type="Int64" Name="offsets" format="ascii"/>
</Polys>
</Piece>
</PolyData>
</VTKFile>