<?xml version="1.0" encoding="UTF-8" ?>
<VTKFile type="PolyData" version="0.1" order="LittleEndian">
<PolyData>
 <Piece NumberOfPoints="40" NumberOfVerts="1" NumberOfLines="0" NumberOfStrips="0" NumberOfPolys="0">
<PointData>
 <DataArray type="Float64" Name="speed" format="ascii">13.3822 13.3509 12.7021 13.7864 2.1771 12.968 13.697 12.8736 13.2896 13.8098 13.2222 11.4803 7.71222 13.2838 6.81721 13.26 4.30246 9.03693 13.2172 13.4191 11.4107 6.74271 2.38375 0.538371 2.73752 4.47142 1.13633e-12 10.483 6.92202e-09 4.63619 3.73971 1.55907 12.6338 4.6863 6.36557 3.7624 3.69807 6.11309 8.20719 0</DataArray>
</PointData>
<CellData/>
<Points>
 <DataArray type="Float64" Name="Points" NumberOfComponents="3" format="ascii">772.294 698.191 0 526.924 799.849 0 766.178 703.116 0 725.99 713.484 0 434.402 842.776 0 695.651 730.158 0 657.931 742.65 0 621.553 761.915 0 585.703 774.857 0 543.752 796.459 0 498.722 811.829 0 477.277 824.537 0 448.604 833.153 0 698.045 717.588 0 456.32 824.134 0 631.26 746.48 0 438.039 832.392 0 1054 697.479 0 1051.15 682.571 0 876.676 716.671 0 1013.86 727.468 0 1097.32 752.856 0 1137.19 776.269 0 1145.05 780.887 0 939.516 712.258 0 1127.65 770.669 0 974.515 643.738 0 900.28 563.375 0 978.155 638.228 0 1036.91 721.836 0 1048.91 722.392 0 1059.51 722.875 0 1078.39 726.621 0 1132.1 763.421 0 1034.64 715.13 0 1040.42 712.089 0 1048.78 715.782 0 1056.48 712.826 0 1116.48 747.694 0 1138.63 768.275 0</DataArray>
</Points>
<Verts>
 <DataArray type="Int64" Name="connectivity" format="ascii">0 1 2 3 4 5 6 7 8 9 10 11 12 13 14 15 16 17 18 19 20 21 22 23 24 25 26 27 28 29 30 31 32 33 34 35 36 37 38 39</DataArray>
 <DataArray type="Int64" Name="offsets" format="ascii">40</DataArray>
</Verts>
<Lines>
 <DataArray type="Int64" Name="connectivity" format="ascii"/>
 <DataArray type="Int64" Name="offsets" format="ascii"/>
</Lines>
<Stripes>
 <DataArray type="Int64" Name="connectivity" format="ascii"/>
 <DataArray type="Int64" Name="offsets" format="ascii"/>
</Stripes>
<Polys>
 <DataArray type="Int64" Name="connectivity" format="ascii"/>
 <DataArray type="Int64" Name="offsets" format="ascii"/>
</Polys>
</Piece>
</PolyData>
</VTKFile>