<?xml version="1.0" encoding="UTF-8" ?>
<VTKFile type="PolyData" version="0.1" order="LittleEndian">
<PolyData>
 <Piece NumberOfPoints="192" NumberOfVerts="1" NumberOfLines="0" NumberOfStrips="0" NumberOfPolys="0">
<PointData>
 <DataArray type="Float64" Name="speed" format="ascii">2.6931e-11 6.3534e-10 1.45191e-07 9.28829e-06 0.000534759 0.0268213 0.0403632 0.270051 0.788417 2.5543 1.88166 1.93167 7.48348 0.870559 0.146638 0.0167014 13.3759 13.4173 4.64888 1.20456 0 3.12863e-16 0 1.89444e-16 2.72733e-15 8.32227e-16 6.98078e-16 0 13.0372 2.26009e-16 13.0612 0 9.59185e-16 7.91145e-16 12.7166 2.23669e-15 12.9222 4.30309e-14 5.41692e-13 1.23335 3.15157 2.05853 0 1.17542e-10 0 2.3316e-10 2.75901e-06 1.20744e-08 0 0.0036284 2.03939e-08 7.31966e-08 0 0.0604073 1.1616 2.32889e-06 0 1.98541 0.646148 7.81019e-05 0.492332 2.91321 2.1006 0.000393222 1.42277 0.0029652 0.0166489 0.00236234 0.0301387 0.0887486 0.00531997 0.0171886 0.019407 0.115517 0.0486935 0.133102 1.68104 1.6519 2.07284 0.166666 1.89114 0.131372 0.825231 0.141171 1.08125 0.894514 0.681541 0.647833 1.58726 1.56644 0.302839 0.377564 0.233517 0.42095 0.476626 0.132907 0.15539 0.671354 0.144452 0.351168 0.646648 0.814305 0.873339 0.474116 0.170293 1.50302 1.85028 0.938808 1.99078 1.72501 0.923527 1.02976 2.61937 2.15434 1.58843 0.546849 6.1279 6.28994 8.98232 6.25406 2.87193 3.87385 1.36649 0.969352 0.193293 0.818767 0.701323 0.22643 1.12966 0.229877 0.041248 1.37038 0.0214402 0.70882 0.866328 1.42039 2.2687 1.88368 5.84813 0 13.3765 9.04681 9.70551 8.1775 5.57768 3.82434 2.01391 1.41851 13.0174 6.09613 3.70199 3.2366 12.825 13.2961 13.8281 13.1459 3.78493 9.41437 11.6563 4.2671 1.66294 0.0162939 3.23604 2.63442 1.7794 5.90596 12.3889 13.1582 13.725 7.26017e-15 13.1607 13.7144 7.46867e-16 2.3235e-12 5.82002e-10 9.23183e-10 4.72523e-05 0.000815966 11.2792 2.30724 3.46249e-06 4.14705 12.9889 4.37497e-13 8.4329e-12 5.75692e-12 2.00536e-08 0.00105652 0.00277575 7.46118 12.2303 5.8175</DataArray>
</PointData>
<CellData/>
<Points>
 <DataArray type="Float64" Name="Points" NumberOfComponents="3" format="ascii">821.838 691.976 0 801.367 692.88 0 774.515 697.647 0 754.879 703.485 0 735.485 710.149 0 716.394 717.631 0 697.475 725.796 0 671.644 736.806 0 650.137 745.971 0 629.123 754.927 0 599.078 768.671 0 572.827 780.582 0 545.441 792.189 0 499.832 811.357 0 479.389 820.055 0 460.378 828.144 0 1492.1 997.679 0 1468.97 980.915 0 939.016 676.599 0 927.591 681.485 0 920.412 684.747 0 914.506 687.641 0 908.226 689.612 0 901.749 690.696 0 895.183 690.405 0 888.384 690.199 0 881.585 689.993 0 874.786 689.788 0 1547.32 1021.24 0 867.987 689.582 0 1488.16 991.683 0 861.465 690.306 0 855.398 692.59 0 848.599 692.43 0 1525.83 1010.79 0 841.801 692.27 0 1545.65 1024.1 0 835.002 692.109 0 828.203 691.949 0 936.502 684.807 0 938.9 680.224 0 929.694 684.174 0 921.617 687.816 0 815.003 692.085 0 915.503 690.794 0 808.17 692.217 0 916.508 693.943 0 794.564 693.543 0 929.127 688.017 0 908.991 692.822 0 787.793 694.391 0 781.154 696.019 0 922.83 690.889 0 902.027 693.989 0 894.829 693.698 0 767.877 699.275 0 884.268 693.378 0 891.672 696.896 0 876.796 693.151 0 748.414 705.706 0 869.077 692.918 0 861.355 693.623 0 852.33 695.812 0 741.95 707.927 0 843.147 695.598 0 834.923 695.407 0 828.115 695.249 0 729.019 712.371 0 821.886 695.276 0 815.085 695.386 0 722.674 714.917 0 808.207 695.532 0 710.09 720.354 0 801.297 696.204 0 703.792 723.075 0 794.289 696.885 0 787.457 697.868 0 778.69 700.019 0 770.468 702.037 0 691.054 728.533 0 760.761 704.964 0 684.638 731.268 0 752.353 707.84 0 678.23 733.998 0 744.19 710.646 0 736.009 713.457 0 664.79 739.726 0 720.128 719.612 0 727.976 716.221 0 657.875 742.674 0 713.133 722.635 0 706.262 725.604 0 642.888 749.061 0 699.474 728.529 0 635.956 752.015 0 692.717 731.408 0 686.292 734.147 0 620.18 758.911 0 679.805 736.911 0 673.377 739.651 0 666.777 742.464 0 613.35 762.07 0 606.311 765.325 0 659.789 745.442 0 652.875 748.389 0 646.332 751.177 0 591.103 772.36 0 638.183 754.65 0 582.203 776.429 0 630.536 757.909 0 622.185 761.622 0 614.56 765.149 0 564.222 784.393 0 607.196 768.557 0 554.302 788.524 0 598.407 772.623 0 591.101 776.003 0 532.188 797.671 0 575.281 783.099 0 555.91 791.428 0 508.957 807.474 0 542.165 797.117 0 531.353 801.591 0 522.699 805.216 0 492.618 814.426 0 514.462 808.72 0 506.5 812.106 0 485.916 817.278 0 499.283 815.177 0 491.703 818.401 0 472.977 822.783 0 485.079 821.219 0 466.657 825.472 0 476.827 824.729 0 469.619 827.795 0 462.343 830.89 0 453.897 834.483 0 454.093 830.818 0 442.766 839.218 0 431.109 840.597 0 781.367 690.811 0 488.352 809.665 0 1113.84 723.655 0 1095.57 710.308 0 1070.05 692.754 0 1052.18 683.592 0 939.175 668.676 0 936.941 670.938 0 661.149 733.549 0 456.927 823.86 0 1057.76 686.37 0 1048.01 677.617 0 479.93 843.112 0 567.086 805.17 0 679.733 758.067 0 782.784 718.151 0 932.761 717.513 0 949.356 718.861 0 1052.71 736.058 0 1126.91 770.231 0 1143.48 779.963 0 940.62 689.549 0 940.774 698.643 0 940.183 705.102 0 939.498 712.44 0 1106.31 758.135 0 1382.98 900.205 0 778.945 706.755 0 800.623 702.902 0 974.515 643.738 0 924.507 591.948 0 1406.13 932.787 0 1008.68 720.289 0 1015.47 720.687 0 1047.46 722.326 0 1054.25 722.635 0 1061.05 722.945 0 1067.24 723.011 0 1108.76 746.067 0 1136.78 766.898 0 761.348 701.277 0 519.467 803.002 0 511.301 813.656 0 1009.07 713.699 0 1047.76 715.736 0 1047.91 712.436 0 1054.55 716.045 0 1054.7 712.745 0 1061.35 716.355 0 1069.56 713.602 0 1098.3 734.49 0 1130.67 758.243 0</DataArray>
</Points>
<Verts>
 <DataArray type="Int64" Name="connectivity" format="ascii">0 1 2 3 4 5 6 7 8 9 10 11 12 13 14 15 16 17 18 19 20 21 22 23 24 25 26 27 28 29 30 31 32 33 34 35 36 37 38 39 40 41 42 43 44 45 46 47 48 49 50 51 52 53 54 55 56 57 58 59 60 61 62 63 64 65 66 67 68 69 70 71 72 73 74 75 76 77 78 79 80 81 82 83 84 85 86 87 88 89 90 91 92 93 94 95 96 97 98 99 100 101 102 103 104 105 106 107 108 109 110 111 112 113 114 115 116 117 118 119 120 121 122 123 124 125 126 127 128 129 130 131 132 133 134 135 136 137 138 139 140 141 142 143 144 145 146 147 148 149 150 151 152 153 154 155 156 157 158 159 160 161 162 163 164 165 166 167 168 169 170 171 172 173 174 175 176 177 178 179 180 181 182 183 184 185 186 187 188 189 190 191</DataArray>
 <DataArray type="Int64" Name="offsets" format="ascii">192</DataArray>
</Verts>
<Lines>
 <DataArray type="Int64" Name="connectivity" format="ascii"/>
 <DataArray type="Int64" Name="offsets" format="ascii"/>
</Lines>
<Stripes>
 <DataArray type="Int64" Name="connectivity" format="ascii"/>
 <DataArray type="Int64" Name="offsets" format="ascii"/>
</Stripes>
<Polys>
 <DataArray type="Int64" Name="connectivity" format="ascii"/>
 <DataArray type="Int64" Name="offsets" format="ascii"/>
</Polys>
</Piece>
</PolyData>
</VTKFile>