<?xml version="1.0" encoding="UTF-8" ?>
<VTKFile type="PolyData" version="0.1" order="LittleEndian">
<PolyData>
 <Piece NumberOfPoints="171" NumberOfVerts="1" NumberOfLines="0" NumberOfStrips="0" NumberOfPolys="0">
<PointData>
 <DataArray type="Float64" Name="speed" format="ascii">0.645566 0.228481 2.23903 5.09229 1.13353 1.11787 1.68896 1.58786 0.045352 0.00067004 0.238527 1.01978e-15 3.26111e-14 13.6411 1.84647e-12 2.51353e-11 13.153 12.6413 7.95255e-09 13.8476 13.7541 13.3057 2.95069e-08 13.774 13.683 8.13816e-08 13.1566 1.3305e-06 13.546 13.6738 1.11648e-05 13.0184 13.7139 0.000321736 13.8819 0 0.0294267 0.000140304 0.00673894 0.631081 0.00207519 0.00359493 2.10545 0.0139205 0.0442164 0 3.73788 1.8483 8.88914e-10 0.586072 4.34078e-09 0.28089 1.19752 1.89795e-08 2.62754e-07 7.01922e-06 1.59972 2.06551e-05 4.89096 0.000487354 0.00664413 0.0076304 2.50438 0.0652407 0.262685 2.27863 0.562342 1.81587 1.64703 0.866047 1.04549 1.82674 7.13976 8.57268 2.93076 8.28541 1.02806 0.842799 3.22268 5.42226 1.77312 0.430719 5.38234 0.228581 3.39722 0.331419 0.4042 1.48369 0.964781 0.185735 0.349881 1.21997 1.85571 1.11092 0.00456262 0.849092 0.677026 0.574415 0.000450286 0.88764 0.832414 1.03037 0.000206345 0.887712 0.709201 13.8334 12.8663 11.507 8.37206 2.42964 13.2074 13.1996 13.3408 13.1532 12.7 1.87725e-12 0 0 13.3185 12.9967 4.90738 4.74785e-15 4.1832e-15 4.73127e-12 10.5087 13.6411 12.8456 5.72518 1.13156e-06 2.12433 12.7512 13.4957 12.7647 13.2674 13.8282 13.5034 9.23098 12.1093 8.53324 1.58169 7.122 6.92793 7.47052 5.83258 0 5.44142e-11 6.08972 2.71018 10.8303 0.00383173 0.0663756 2.78081 13.4977 12.4541 12.9222 12.6769 12.8759 13.7383 10.5261 5.99739 3.78696 1.88009 13.4727 0.0124581 13.057 12.8063 13.8067 13.8398 13.8969 6.79013 2.17224</DataArray>
</PointData>
<CellData/>
<Points>
 <DataArray type="Float64" Name="Points" NumberOfComponents="3" format="ascii">920.651 655.55 0 821.664 691.979 0 791.563 693.836 0 761.245 701.312 0 730.516 711.856 0 707.651 721.408 0 674.558 735.564 0 644.204 748.5 0 616.41 760.654 0 597.825 769.251 0 579.148 777.782 0 920.412 684.747 0 914.506 687.641 0 1385.48 915.146 0 908.226 689.612 0 901.749 690.696 0 1387.1 920.571 0 1365 900.003 0 895.183 690.405 0 1307.87 864.692 0 1340.36 886.567 0 1205.11 800.173 0 888.384 690.199 0 1296.62 853.137 0 1255.89 829.888 0 881.585 689.993 0 1138.77 760.147 0 874.786 689.788 0 1284.92 849.238 0 1202.16 794.624 0 867.987 689.582 0 1326.47 873.237 0 1234.72 817.502 0 861.465 690.306 0 1186.3 789.165 0 934.042 682.28 0 935.361 685.3 0 855.398 692.59 0 927.806 684.997 0 921.568 687.839 0 848.598 692.43 0 841.792 692.269 0 917.468 693.528 0 834.989 692.109 0 828.13 691.947 0 908.087 693.05 0 900.842 694.001 0 890.132 693.555 0 881.485 693.293 0 814.556 692.092 0 874.686 693.088 0 806.939 692.337 0 799.688 693.044 0 867.887 692.882 0 861.373 693.604 0 855.327 695.882 0 782.29 695.74 0 848.526 695.723 0 773.576 697.877 0 841.725 695.565 0 834.923 695.407 0 828.115 695.249 0 749.555 705.314 0 821.831 695.277 0 814.827 695.39 0 740.15 708.546 0 807.358 695.615 0 800.016 696.328 0 790.849 697.22 0 723.01 714.772 0 715.323 718.093 0 781.955 699.218 0 772.897 701.441 0 757.091 706.215 0 700.338 724.568 0 740.042 712.071 0 690.416 728.805 0 682.385 732.228 0 709.576 724.172 0 723.18 718.293 0 700.385 728.14 0 692.28 731.595 0 665.563 739.397 0 685.583 734.449 0 654.181 744.248 0 678.805 737.338 0 636.254 751.888 0 671.833 740.309 0 664.058 743.622 0 629.406 754.807 0 622.947 757.631 0 656.867 746.687 0 648.6 750.21 0 640.301 753.747 0 610.193 763.53 0 632.64 757.013 0 624.715 760.452 0 617.711 763.692 0 591.648 772.107 0 610.747 766.914 0 603.182 770.414 0 595.914 773.776 0 585.471 774.964 0 588.509 777.202 0 581.163 780.493 0 553.863 788.705 0 511.813 806.259 0 476.373 824.922 0 453.065 834.837 0 433.344 839.646 0 1358.34 899.235 0 1345.84 886.281 0 1248.86 821.958 0 1274.47 838.224 0 1162.19 771.231 0 971.406 654.043 0 932.722 679.25 0 926.487 681.967 0 911.708 668.835 0 624.975 749.199 0 442.911 830.191 0 1047.56 676.366 0 1046.92 674.363 0 1045.66 672.931 0 1028.86 665.648 0 847.599 509.362 0 699.754 716.849 0 456.467 824.068 0 1043.73 672.095 0 890.572 539.233 0 448.899 856.62 0 472.812 846.21 0 538.162 817.761 0 680.479 757.778 0 748.187 731.552 0 845.441 716.203 0 955.677 719.704 0 1041.15 732.657 0 1095.91 752.027 0 1142.67 779.491 0 874.077 602.086 0 879.566 612.069 0 885.01 621.968 0 890.69 632.297 0 939.604 711.337 0 939.404 713.429 0 941.618 717.827 0 1136.19 775.682 0 1066.49 699.321 0 1006.94 704.864 0 1010.14 698.34 0 880.208 534.611 0 745.555 717.156 0 784.962 705.276 0 805.87 702.394 0 874.901 702.993 0 898.47 704.235 0 967.715 708.426 0 991.355 713.672 0 1035.18 721.755 0 1049.68 722.427 0 1061.36 722.959 0 1092.81 738.515 0 604.013 766.389 0 890.125 620.499 0 918.886 648.117 0 958 686.66 0 1023.06 714.526 0 1082.26 721.266 0 1128.24 756.432 0 1136.89 766.978 0</DataArray>
</Points>
<Verts>
 <DataArray type="Int64" Name="connectivity" format="ascii">0 1 2 3 4 5 6 7 8 9 10 11 12 13 14 15 16 17 18 19 20 21 22 23 24 25 26 27 28 29 30 31 32 33 34 35 36 37 38 39 40 41 42 43 44 45 46 47 48 49 50 51 52 53 54 55 56 57 58 59 60 61 62 63 64 65 66 67 68 69 70 71 72 73 74 75 76 77 78 79 80 81 82 83 84 85 86 87 88 89 90 91 92 93 94 95 96 97 98 99 100 101 102 103 104 105 106 107 108 109 110 111 112 113 114 115 116 117 118 119 120 121 122 123 124 125 126 127 128 129 130 131 132 133 134 135 136 137 138 139 140 141 142 143 144 145 146 147 148 149 150 151 152 153 154 155 156 157 158 159 160 161 162 163 164 165 166 167 168 169 170</DataArray>
 <DataArray type="Int64" Name="offsets" format="ascii">171</DataArray>
</Verts>
<Lines>
 <DataArray type="Int64" Name="connectivity" format="ascii"/>
 <DataArray type="Int64" Name="offsets" format="ascii"/>
</Lines>
<Stripes>
 <DataArray type="Int64" Name="connectivity" format="ascii"/>
 <DataArray type="Int64" Name="offsets" format="ascii"/>
</Stripes>
<Polys>
 <DataArray type="Int64" Name="connectivity" format="ascii"/>
 <DataArray type="Int64" Name="offsets" format="ascii"/>
</Polys>
</Piece>
</PolyData>
</VTKFile>