<?xml version="1.0" encoding="UTF-8" ?>
<VTKFile type="PolyData" version="0.1" order="LittleEndian">
<PolyData>
 <Piece NumberOfPoints="143" NumberOfVerts="1" NumberOfLines="0" NumberOfStrips="0" NumberOfPolys="0">
<PointData>
 <DataArray type="Float64" Name="speed" format="ascii">3.61186e-15 4.01006e-15 2.68923e-12 1.87701e-09 7.74845e-07 1.10805e-05 0.00053428 12.5226 1.01915 0.035233 0.00209572 0.151817 0 0 0.85572 0.847903 4.69102e-15 1.35784 0.991836 0.949507 2.11657e-15 0.961968 0.22811 4.76352e-14 1.70014 5.42798e-13 0.8338 0.47064 2.29058e-11 0.131401 0.109055 7.57908e-11 0.0968626 0.0177814 0.0418444 4.94555e-09 0.0875282 0.0903076 1.40022e-08 8.45416e-08 0.241046 6.40025e-07 5.38444e-06 0.399844 0.936474 1.05579 1.18451 3.36473e-05 1.49747 7.45766e-05 0.000348005 1.58899 1.27738 2.21826 0.00234915 2.07894 13.3837 13.1769 13.1435 13.8486 13.5397 13.2685 7.99364 3.42865 0.0838092 13.3923 1.77603 2.02862 1.30305 4.58343 0.1835 3.92124 6.05138 0.3108 5.55357 0.389546 9.13128 0.0171615 1.30495 7.68559 8.67289 2.44625 6.10796 0.586509 2.5437 2.23558 1.52746 1.92758 0.453209 1.84786 0.343534 13.0918 12.794 4.06501 13.2761 9.64787 9.56103 5.04248 10.2557 12.7236 2.19321 0.476641 12.9454 9.45813 12.9778 13.4891 13.6285 13.8885 13.027 13.7541 12.9108 9.44461 2.85469 0.000109825 0.000439359 0.00526237 0.00868681 0 4.78983 4.58411 3.8044 1.41295 6.23749e-16 5.21333e-05 0.217821 2.31716 3.1607 2.98427 0.883004 0.000178234 0.0199325 6.95657 0.634603 1.49857 2.18787 3.7246e-14 2.16374e-09 3.10026e-08 1.32955e-05 0.00635077 5.95607 12.3033 2.59424</DataArray>
</PointData>
<CellData/>
<Points>
 <DataArray type="Float64" Name="Points" NumberOfComponents="3" format="ascii">815.003 692.085 0 794.564 693.543 0 774.515 697.647 0 754.879 703.485 0 729.022 712.37 0 710.133 720.336 0 685.083 731.078 0 590.307 772.728 0 889.301 693.53 0 841.84 692.271 0 835.004 692.109 0 881.481 693.293 0 828.203 691.949 0 821.838 691.976 0 874.524 693.083 0 866.464 692.839 0 808.17 692.217 0 859.287 695.805 0 850.51 695.77 0 842.214 695.577 0 801.367 692.88 0 834.036 695.386 0 826.235 695.235 0 787.793 694.391 0 819.349 695.317 0 781.154 696.019 0 810.809 695.455 0 802.658 696.072 0 767.877 699.275 0 795.329 696.784 0 788.442 697.627 0 761.348 701.277 0 781.757 699.267 0 775.068 700.908 0 768.477 702.525 0 748.414 705.706 0 761.959 704.555 0 755.446 706.777 0 741.95 707.927 0 735.486 710.148 0 748.913 709.022 0 722.682 714.913 0 716.408 717.625 0 742.045 711.383 0 735.246 713.72 0 727.433 716.455 0 719.954 719.687 0 703.858 723.047 0 712.482 722.916 0 697.597 725.745 0 691.34 728.411 0 704.62 726.313 0 695.753 730.115 0 687.806 733.501 0 678.825 733.745 0 679.362 737.1 0 665.57 739.394 0 631.248 757.606 0 600.702 771.561 0 560.923 785.785 0 528.523 799.187 0 492.602 818.018 0 455.333 833.872 0 436.21 838.427 0 1044.38 679.293 0 1010.31 663.932 0 960.359 662.537 0 950.404 670.6 0 942.125 675.255 0 1038.41 679.904 0 934.847 678.344 0 1027.29 674.082 0 974.706 652.336 0 928.449 681.111 0 965.336 662.677 0 912.18 688.467 0 992.948 652.096 0 905.401 690.238 0 919.513 685.176 0 937.021 681.014 0 954.719 671.408 0 915.553 690.772 0 898.323 690.552 0 906.143 693.458 0 882.723 690.028 0 916.753 693.837 0 872.99 689.733 0 864.405 689.473 0 856.305 692.612 0 898.016 693.832 0 849.017 692.44 0 906.964 657.23 0 604.679 757.979 0 439.848 831.575 0 1196.08 781.438 0 1126.91 733.46 0 1095.97 710.598 0 993.565 638.19 0 980.27 647.601 0 675.163 727.487 0 430.142 835.958 0 1046.9 707.099 0 1166.72 762.831 0 1115.17 724.624 0 1023.63 663.385 0 547.11 813.866 0 628.139 778.592 0 726.186 740.074 0 836.448 716.231 0 887.383 716.832 0 994.184 724.842 0 1084.95 745.589 0 1139.6 777.688 0 940.45 689.048 0 941.123 691.038 0 941.276 693.096 0 941.084 695.218 0 939.7 710.34 0 1129.72 771.882 0 1509.54 987.774 0 937.918 707.105 0 949.075 707.64 0 974.515 643.738 0 968.842 639.987 0 957.606 707.997 0 1045.14 722.219 0 1049.44 719.117 0 1056.72 722.748 0 1066.53 723.039 0 1072.72 722.951 0 1077.64 726.01 0 1121.61 755.622 0 955.146 684.613 0 1046.26 715.667 0 1045.73 712.335 0 1054.55 716.045 0 1054.7 712.745 0 1061.35 716.355 0 1061.5 713.055 0 1068.44 716.485 0 1076.64 717.234 0 1101.47 736.89 0 1135.3 765.796 0</DataArray>
</Points>
<Verts>
 <DataArray type="Int64" Name="connectivity" format="ascii">0 1 2 3 4 5 6 7 8 9 10 11 12 13 14 15 16 17 18 19 20 21 22 23 24 25 26 27 28 29 30 31 32 33 34 35 36 37 38 39 40 41 42 43 44 45 46 47 48 49 50 51 52 53 54 55 56 57 58 59 60 61 62 63 64 65 66 67 68 69 70 71 72 73 74 75 76 77 78 79 80 81 82 83 84 85 86 87 88 89 90 91 92 93 94 95 96 97 98 99 100 101 102 103 104 105 106 107 108 109 110 111 112 113 114 115 116 117 118 119 120 121 122 123 124 125 126 127 128 129 130 131 132 133 134 135 136 137 138 139 140 141 142</DataArray>
 <DataArray type="Int64" Name="offsets" format="ascii">143</DataArray>
</Verts>
<Lines>
 <DataArray type="Int64" Name="connectivity" format="ascii"/>
 <DataArray type="Int64" Name="offsets" format="ascii"/>
</Lines>
<Stripes>
 <DataArray type="Int64" Name="connectivity" format="ascii"/>
 <DataArray type="Int64" Name="offsets" format="ascii"/>
</Stripes>
<Polys>
 <DataArray type="Int64" Name="connectivity" format="ascii"/>
 <DataArray type="Int64" Name="offsets" format="ascii"/>
</Polys>
</Piece>
</PolyData>
</VTKFile>