<?xml version="1.0" encoding="UTF-8" ?>
<VTKFile type="PolyData" version="0.1" order="LittleEndian">
<PolyData>
 <Piece NumberOfPoints="130" NumberOfVerts="1" NumberOfLines="0" NumberOfStrips="0" NumberOfPolys="0">
<PointData>
 <DataArray type="Float64" Name="speed" format="ascii">1.12289e-08 7.71442e-05 0.00450993 2.5467 12.5933 1.29305 9.48612e-07 2.64422e-06 0.89289 2.8622e-06 6.6073e-05 1.28735 1.60756 0.000290403 2.40109 0.632233 0.272155 0.000676401 0.0411459 0.0183044 0.00815941 0.0513106 0.00252043 0.827251 7.15982 13.8504 12.5834 13.3855 13.7725 13.5914 13.6055 12.468 6.25235 1.04236 0.00395556 0.105414 6.32967 3.29267 1.97214 13.3912 2.63981 1.48927e-06 3.66555 1.93486 3.20728 0.00638701 0.153986 6.57761 7.97762 0.799076 1.12769 1.01017 1.04075 2.43338 13.5347 4.07049e-05 7.44461 3.12622 4.99816 0.000291522 1.20028 0.0163007 0.880645 5.69443 0.12858 2.78105 0.490323 0.442194 0.610072 0.418676 0.81574 1.05985 0.24083 1.6511 0.106315 0.0180981 6.61307e-09 3.31702 8.55074e-09 13.2404 7.86072 8.53213 8.6445 7.8214 12.8026 12.9237 0.598274 13.4458 11.4763 12.9241 13.0295 13.3349 12.7195 12.715 13.2604 9.55685 5.64056 3.06606e-15 1.51387e-08 1.11668e-05 0.000985258 0 5.1389 12.5175 13.397 9.65196 6.64023 4.02756e-15 12.4553 5.49335 4.99082 6.86195 3.44449 1.00449 1.14728 2.40687 0.748755 0.857432 8.73378 8.64157 10.5546 8.50522 9.33363 2.65868 0.0346248 4.05811 5.42786 2.65462 12.1465 3.1462</DataArray>
</PointData>
<CellData/>
<Points>
 <DataArray type="Float64" Name="Points" NumberOfComponents="3" format="ascii">808.17 692.217 0 774.515 697.647 0 754.875 703.486 0 735.119 710.275 0 499.348 811.563 0 819.116 695.321 0 801.367 692.88 0 794.564 693.543 0 810.477 695.46 0 787.793 694.391 0 781.154 696.019 0 801.904 696.145 0 793.873 696.926 0 767.876 699.275 0 785.559 698.334 0 776.069 700.662 0 768.795 702.447 0 761.347 701.277 0 762.065 704.519 0 755.617 706.718 0 748.405 705.709 0 749.163 708.937 0 741.932 707.933 0 742.712 711.153 0 734.062 714.126 0 708.074 721.225 0 665.682 739.346 0 622.363 757.901 0 585.989 774.725 0 546.118 791.909 0 500.129 814.817 0 472.475 826.58 0 445.88 834.312 0 432.068 840.189 0 1042.87 682.235 0 1036.79 679.054 0 978.246 650.608 0 951.874 669.445 0 936.261 677.752 0 968.392 660.121 0 1037.86 675.881 0 1044.4 679.306 0 964.818 658.809 0 928.263 681.193 0 1023.47 672.085 0 920.412 684.747 0 914.479 687.653 0 998.816 656.093 0 1014.17 666.705 0 908.008 689.667 0 900.738 690.711 0 1030.52 675.774 0 911.324 692.17 0 892.39 690.321 0 996.389 658.432 0 903.499 693.889 0 938.216 680.512 0 912.568 695.239 0 922.26 687.512 0 896.448 693.751 0 882.621 690.025 0 889.639 693.54 0 901.807 697.303 0 874.407 689.776 0 882.791 693.333 0 860.098 691.738 0 875.729 693.119 0 868.321 692.895 0 861.339 693.639 0 854.224 695.856 0 850.012 692.463 0 846.921 695.686 0 842.191 692.279 0 838.564 695.492 0 835.133 692.112 0 828.221 691.949 0 821.838 691.976 0 828.777 695.264 0 815.003 692.085 0 724.206 706.547 0 483.339 811.93 0 1037.88 669.558 0 1023.89 663.496 0 1008.02 651.205 0 878.98 611.002 0 660.523 733.82 0 426.958 838.347 0 719.424 742.693 0 949.714 610.153 0 564.482 806.304 0 635.974 775.181 0 738.704 735.225 0 807.409 716.78 0 954.644 719.566 0 987.438 723.942 0 1081.12 744.411 0 1127.38 770.508 0 940.45 689.048 0 941.122 691.037 0 941.276 693.088 0 941.087 695.18 0 939.7 710.34 0 1117.11 764.476 0 899.889 704.707 0 876.188 703.032 0 924.012 706.38 0 944.616 707.451 0 978.155 638.228 0 952.409 627.099 0 997.808 717.614 0 958.723 708.044 0 1008.76 720.294 0 1042.65 722.103 0 1053.48 722.6 0 1061.71 722.975 0 1069.4 722.85 0 1076.94 725.426 0 1083.08 730.496 0 1117.55 752.601 0 1009.88 713.747 0 1000.7 709.416 0 1027.18 714.77 0 1024.53 711.304 0 1048.44 715.766 0 1047.92 712.436 0 1059.66 716.278 0 1055.25 712.77 0 1072.03 714.211 0 1100.66 736.377 0 1135.05 765.617 0</DataArray>
</Points>
<Verts>
 <DataArray type="Int64" Name="connectivity" format="ascii">0 1 2 3 4 5 6 7 8 9 10 11 12 13 14 15 16 17 18 19 20 21 22 23 24 25 26 27 28 29 30 31 32 33 34 35 36 37 38 39 40 41 42 43 44 45 46 47 48 49 50 51 52 53 54 55 56 57 58 59 60 61 62 63 64 65 66 67 68 69 70 71 72 73 74 75 76 77 78 79 80 81 82 83 84 85 86 87 88 89 90 91 92 93 94 95 96 97 98 99 100 101 102 103 104 105 106 107 108 109 110 111 112 113 114 115 116 117 118 119 120 121 122 123 124 125 126 127 128 129</DataArray>
 <DataArray type="Int64" Name="offsets" format="ascii">130</DataArray>
</Verts>
<Lines>
 <DataArray type="Int64" Name="connectivity" format="ascii"/>
 <DataArray type="Int64" Name="offsets" format="ascii"/>
</Lines>
<Stripes>
 <DataArray type="Int64" Name="connectivity" format="ascii"/>
 <DataArray type="Int64" Name="offsets" format="ascii"/>
</Stripes>
<Polys>
 <DataArray type="Int64" Name="connectivity" format="ascii"/>
 <DataArray type="Int64" Name="offsets" format="ascii"/>
</Polys>
</Piece>
</PolyData>
</VTKFile>