<?xml version="1.0" encoding="UTF-8" ?>
<VTKFile type="PolyData" version="0.1" order="LittleEndian">
<PolyData>
 <Piece NumberOfPoints="179" NumberOfVerts="1" NumberOfLines="0" NumberOfStrips="0" NumberOfPolys="0">
<PointData>
 <DataArray type="Float64" Name="speed" format="ascii">12.2929 0.000710009 0.0375196 0.361078 1.21474 5.69093 2.83659 1.62167 0.602863 0.309649 0.0248145 3.4721e-05 1.25318e-06 0.156736 13.1373 12.4881 13.4065 13.0789 0 0 0 3.25075e-14 5.77938e-13 8.78852e-12 13.3888 13.058 6.70269e-11 12.7832 12.8441 2.14397e-09 3.32083e-09 13.124 1.69747e-07 8.49749e-07 13.1677 13.8818 13.3584 12.3396 1.54899e-05 12.6415 2.66819e-05 0.000444756 13.4271 12.5913 12.9876 0.000265125 0 0.00196142 0.00581802 0.0820085 0.743813 0.00651759 1.88251 0 0.0101902 2.44458 8.67362e-19 4.52839 0.130464 0.338178 1.89816 1.3347 0 1.24431 2.90517 0.610214 2.01583 0.000350842 0.456306 0.00589938 0.0136967 0.547534 0.0103384 6.47816 0.0729907 6.01372 0.0420644 0.0966566 4.05926 3.13479 0.668382 0.765792 1.12861 1.94372 1.66327 1.03527 6.84442 1.23872 8.78143 7.32172 5.95751 2.53627 4.14725 0.941641 1.3705 0.524806 0.914393 1.16398 0.298718 0.575444 0.144951 0.633844 0.124048 0.952567 0.769105 0.604997 0.239822 0.00582317 0.539241 0.000657044 0.266765 0.00121285 0.567134 0.855663 9.77538e-06 0.360036 0.10343 2.65019e-06 0.484906 0.314045 3.46058e-06 0.546947 0.000142074 1.17771 3.35578 13.503 13.357 7.15364 1.52663 13.2439 13.4488 12.5199 8.84587 13.8003 4.63493 3.76252e-15 3.44386e-11 4.76048e-11 12.7077 13.5384 5.91097e-15 2.84206e-12 13.356 13.8158 13.1806 12.9895 12.9118 12.8615 12.3945 7.6233 2.28473 7.69575 8.06626 7.28418 0 1.21164e-12 0.497699 6.29103 6.85203 0.000188242 0.00403938 0.222193 13.1323 13.0953 12.7421 13.4663 12.4853 12.903 12.8093 8.01761 11.2763 6.29016 2.3357 12.838 12.4443 12.5896 13.4508 13.2725 8.52608</DataArray>
</PointData>
<CellData/>
<Points>
 <DataArray type="Float64" Name="Points" NumberOfComponents="3" format="ascii">890.928 622.188 0 919.097 669.391 0 814.957 692.086 0 793.862 693.612 0 762.173 700.995 0 731.725 711.441 0 686.006 730.684 0 657.569 742.804 0 631.647 753.852 0 610.793 763.253 0 591.679 772.093 0 566.877 783.217 0 548.064 791.104 0 529.028 798.978 0 1318.02 867.547 0 1264.74 831.675 0 1168.1 774.692 0 1150.08 767.97 0 932.722 679.25 0 926.487 681.967 0 920.412 684.747 0 914.506 687.641 0 908.226 689.612 0 901.749 690.696 0 1410.93 941.358 0 1387.98 921.339 0 895.183 690.405 0 1329.82 879.472 0 1191.98 788.664 0 888.384 690.199 0 881.585 689.993 0 1350.24 893.331 0 874.786 689.788 0 867.987 689.582 0 1368.43 906.584 0 1359.48 895.984 0 1279.35 845.489 0 1261.27 833.313 0 861.465 690.306 0 1299.06 858.76 0 855.398 692.59 0 848.599 692.43 0 1296.28 852.912 0 1210.91 799.748 0 1238.35 819.628 0 841.8 692.27 0 934.042 682.28 0 835 692.109 0 935.361 685.3 0 927.709 685.039 0 921.252 687.988 0 828.199 691.949 0 913.025 691.662 0 903.574 693.877 0 821.826 691.976 0 900.682 697.279 0 890.585 693.569 0 890.706 696.867 0 808.072 692.227 0 801.048 692.911 0 883.037 693.34 0 873.717 696.358 0 868.151 692.89 0 786.693 694.661 0 859.182 695.915 0 778.55 696.657 0 771.23 698.452 0 841.725 695.565 0 848.982 695.734 0 834.923 695.407 0 828.116 695.249 0 753.933 703.809 0 821.882 695.277 0 745.253 706.792 0 815.074 695.386 0 718.838 716.574 0 808.215 695.531 0 801.347 696.199 0 706.426 721.938 0 695.53 726.626 0 793.708 696.942 0 785.592 698.326 0 777.996 700.19 0 675.891 734.995 0 770.056 702.138 0 761.32 704.773 0 752.2 707.893 0 649.197 746.372 0 737.443 712.964 0 721.536 719.004 0 700.778 727.974 0 640.772 749.963 0 687.804 733.502 0 676.819 738.184 0 669.423 741.336 0 624.26 757.045 0 661.434 744.741 0 654.196 747.826 0 617.297 760.244 0 646.092 751.279 0 604.293 766.259 0 638.468 754.529 0 597.98 769.179 0 630.984 757.718 0 623.223 761.142 0 616.271 764.358 0 609.266 767.599 0 585.48 774.96 0 602.19 770.873 0 579.316 777.708 0 595.284 774.068 0 573.096 780.463 0 588.797 777.069 0 581.733 780.241 0 560.632 785.905 0 568.211 786.231 0 574.61 783.396 0 554.348 788.505 0 561.596 789.075 0 554.676 791.939 0 541.781 793.703 0 547.974 794.713 0 535.497 796.302 0 541.108 797.554 0 533.388 800.749 0 505.995 808.735 0 479.873 819.849 0 448.828 836.639 0 433.803 843.03 0 1409.04 935.329 0 1383.58 913.713 0 1337.29 880.527 0 890.697 632.309 0 659.435 734.291 0 445.776 828.897 0 1047.56 676.366 0 1045.66 672.931 0 937.093 670.973 0 910.074 665.011 0 566.426 774.527 0 1046.78 707.263 0 1046.92 674.363 0 1013.87 656.471 0 577.118 800.803 0 661.488 765.134 0 737.913 735.532 0 853.212 716.319 0 941.522 717.817 0 1016.76 727.855 0 1096.35 752.282 0 1139.25 777.482 0 871.29 597.019 0 877.765 608.792 0 883.261 618.786 0 939.7 710.34 0 939.499 712.432 0 939.277 714.748 0 1120.9 766.703 0 1140.45 769.631 0 1006.94 704.869 0 1010.1 698.405 0 1012.16 691.275 0 999.945 660.852 0 724.432 724.943 0 778.221 706.933 0 803.842 702.59 0 890.729 703.472 0 952.368 707.774 0 978.745 708.894 0 1025.73 721.288 0 1046.96 722.303 0 1129.02 761.133 0 667.039 738.768 0 867.298 702.763 0 918.065 647.143 0 958.811 687.242 0 1021.21 714.417 0 1086.91 725.101 0 1118.41 749.127 0</DataArray>
</Points>
<Verts>
 <DataArray type="Int64" Name="connectivity" format="ascii">0 1 2 3 4 5 6 7 8 9 10 11 12 13 14 15 16 17 18 19 20 21 22 23 24 25 26 27 28 29 30 31 32 33 34 35 36 37 38 39 40 41 42 43 44 45 46 47 48 49 50 51 52 53 54 55 56 57 58 59 60 61 62 63 64 65 66 67 68 69 70 71 72 73 74 75 76 77 78 79 80 81 82 83 84 85 86 87 88 89 90 91 92 93 94 95 96 97 98 99 100 101 102 103 104 105 106 107 108 109 110 111 112 113 114 115 116 117 118 119 120 121 122 123 124 125 126 127 128 129 130 131 132 133 134 135 136 137 138 139 140 141 142 143 144 145 146 147 148 149 150 151 152 153 154 155 156 157 158 159 160 161 162 163 164 165 166 167 168 169 170 171 172 173 174 175 176 177 178</DataArray>
 <DataArray type="Int64" Name="offsets" format="ascii">179</DataArray>
</Verts>
<Lines>
 <DataArray type="Int64" Name="connectivity" format="ascii"/>
 <DataArray type="Int64" Name="offsets" format="ascii"/>
</Lines>
<Stripes>
 <DataArray type="Int64" Name="connectivity" format="ascii"/>
 <DataArray type="Int64" Name="offsets" format="ascii"/>
</Stripes>
<Polys>
 <DataArray type="Int64" Name="connectivity" format="ascii"/>
 <DataArray type="Int64" Name="offsets" format="ascii"/>
</Polys>
</Piece>
</PolyData>
</VTKFile>