<?xml version="1.0" encoding="UTF-8" ?>
<VTKFile type="PolyData" version="0.1" order="LittleEndian">
<PolyData>
 <Piece NumberOfPoints="112" NumberOfVerts="1" NumberOfLines="0" NumberOfStrips="0" NumberOfPolys="0">
<PointData>
 <DataArray type="Float64" Name="speed" format="ascii">4.62273e-14 0.143398 13.837 2.25641 13.0059 13.7717 5.45826 4.93966 2.49644 4.74981 0.73025 0.911554 2.06873 0.363124 13.6998 9.98692e-16 4.88506 1.16695e-15 8.11418 6.18871 0 1.92825e-16 3.32248 0 0 1.7684e-05 1.02732 4.52354e-08 0 0.274832 2.8275 0.115148 0 9.67557e-16 0.798532 6.92855e-16 0 0.658341 1.62889 1.55818e-15 1.49589e-15 3.01393 2.02432 3.33348e-15 0.730046 0.107964 0.0999395 3.00069e-09 0.0246019 0.0776312 0.00167851 0.159938 1.16881 12.9305 13.5971 13.3158 12.6935 13.6351 13.5603 13.4441 13.2575 13.4743 7.4089 1.00307 13.4303 12.5886 12.9365 0.111435 11.1215 7.78595 5.61441 4.34702 13.146 6.92486 9.36995 6.54661 12.8322 13.6093 13.523 12.9496 13.7958 13.7061 13.3206 7.62732 4.90068 0.173231 0.0923049 3.96819 11.7925 0.0274555 3.21161e-14 13.3084 2.44906e-07 12.897 5.14206e-11 4.63439e-05 12.7256 1.02515e-12 1.82162e-10 7.08572e-07 1.79733e-05 0.214902 6.65573 2.75807e-14 1.62886e-14 8.82459e-09 5.10284e-07 4.65075e-05 0.0391499 13.3552 9.18855 2.35693</DataArray>
</PointData>
<CellData/>
<Points>
 <DataArray type="Float64" Name="Points" NumberOfComponents="3" format="ascii">815.003 692.085 0 794.525 693.547 0 649.515 746.237 0 433.185 839.714 0 1554.26 1028.29 0 1546.32 1020.75 0 950.959 670.164 0 939.348 676.46 0 928.059 681.282 0 982.291 649.323 0 919.604 685.133 0 911.959 688.533 0 904.147 690.44 0 895.546 690.416 0 1512.7 1004.4 0 888.384 690.199 0 969.342 655.219 0 881.585 689.993 0 952.934 672.813 0 938.99 680.186 0 874.786 689.788 0 867.987 689.582 0 925.927 685.816 0 915.503 690.794 0 861.465 690.306 0 916.508 693.943 0 930.069 687.606 0 908.995 692.821 0 888.57 696.803 0 901.748 693.999 0 894.121 693.676 0 909.755 696.029 0 922.83 690.889 0 855.398 692.59 0 879.046 693.22 0 848.599 692.43 0 841.801 692.27 0 871.291 692.985 0 863.674 692.754 0 835.002 692.109 0 828.203 691.949 0 855.746 695.891 0 845.685 695.657 0 821.838 691.976 0 836.035 695.433 0 828.363 695.254 0 821.979 695.275 0 808.17 692.217 0 815.08 695.386 0 808.286 695.524 0 801.366 692.881 0 801.289 696.205 0 793.851 696.928 0 770.689 698.585 0 743.559 707.374 0 693.905 727.318 0 658.298 746.078 0 610.986 763.163 0 572.074 780.915 0 549.899 793.916 0 512.851 809.405 0 480.628 819.528 0 448.118 833.36 0 433.322 843.235 0 844.38 682.1 0 563.15 775.945 0 629.889 747.073 0 426.587 838.664 0 1146.78 750.191 0 1095.95 710.585 0 1067.47 687.854 0 953.401 658.112 0 912.033 656.951 0 1051.05 701.445 0 1108.87 720.025 0 1074.43 697.97 0 1017.11 659.387 0 497.451 835.484 0 609.439 786.733 0 695.874 751.815 0 792.548 717.062 0 894.227 716.935 0 977.731 722.647 0 1093.4 750.553 0 1125.97 769.678 0 1145.36 781.071 0 941.298 691.558 0 941.042 695.682 0 1038.53 731.921 0 940.45 689.048 0 974.515 643.738 0 932.023 600.813 0 950.487 707.696 0 1456.59 950.368 0 943.69 707.402 0 957.285 707.983 0 1361.09 897.16 0 1047.46 722.326 0 1054.25 722.635 0 1061.05 722.945 0 1067.24 723.011 0 1072.96 722.988 0 1124.48 757.754 0 1009.07 713.699 0 1047.76 715.736 0 1047.91 712.436 0 1054.55 716.045 0 1054.7 712.745 0 1061.37 716.356 0 1089.83 727.502 0 1112.23 744.528 0 1136.74 766.868 0</DataArray>
</Points>
<Verts>
 <DataArray type="Int64" Name="connectivity" format="ascii">0 1 2 3 4 5 6 7 8 9 10 11 12 13 14 15 16 17 18 19 20 21 22 23 24 25 26 27 28 29 30 31 32 33 34 35 36 37 38 39 40 41 42 43 44 45 46 47 48 49 50 51 52 53 54 55 56 57 58 59 60 61 62 63 64 65 66 67 68 69 70 71 72 73 74 75 76 77 78 79 80 81 82 83 84 85 86 87 88 89 90 91 92 93 94 95 96 97 98 99 100 101 102 103 104 105 106 107 108 109 110 111</DataArray>
 <DataArray type="Int64" Name="offsets" format="ascii">112</DataArray>
</Verts>
<Lines>
 <DataArray type="Int64" Name="connectivity" format="ascii"/>
 <DataArray type="Int64" Name="offsets" format="ascii"/>
</Lines>
<Stripes>
 <DataArray type="Int64" Name="connectivity" format="ascii"/>
 <DataArray type="Int64" Name="offsets" format="ascii"/>
</Stripes>
<Polys>
 <DataArray type="Int64" Name="connectivity" format="ascii"/>
 <DataArray type="Int64" Name="offsets" format="ascii"/>
</Polys>
</Piece>
</PolyData>
</VTKFile>