<?xml version="1.0" encoding="UTF-8" ?>
<VTKFile type="PolyData" version="0.1" order="LittleEndian">
<PolyData>
 <Piece NumberOfPoints="155" NumberOfVerts="1" NumberOfLines="0" NumberOfStrips="0" NumberOfPolys="0">
<PointData>
 <DataArray type="Float64" Name="speed" format="ascii">4.448 0.00112546 0.147772 1.25864 2.87526 1.70673 1.67749 1.5809 12.7569 13.095 3.81068e-11 2.20545e-11 0 1.2672e-10 1.46304e-09 4.0056e-07 4.99821e-10 1.36445e-08 2.61353e-06 1.05052e-05 0.000668271 1.06061e-07 0.905898 2.78436 5.51487e-07 3.56418 2.65503e-06 2.36396 0.928166 0.000153021 0.529774 0.598558 0.000648703 0.805987 0.113355 0.389458 0.00668384 0.315701 2.59881 0.0311976 0.182522 1.62707 0.241534 0.524203 0.871532 0.460913 0.0467972 0.00811543 1.30129 0.0176299 0.854732 1.72028 0.0240596 0.0750571 0.516114 3.54141 0.790775 1.06119 0.446264 1.97502 1.5183 2.01888 1.27655 4.1347 1.21691 3.55998 3.59192 8.51179 2.60069 1.74188 5.66504 3.44129 1.41457 3.54976 3.05622 5.80341 6.39092 13.1468 12.4522 12.4539 11.5609 6.93912 1.85191 12.9631 12.8008 12.5505 12.7277 13.0018 12.696 12.4819 12.9757 13.4501 12.7777 13.2011 0 13.7874 0 13.6319 13.638 13.0053 13.0561 0 12.8151 3.03437e-16 12.7296 4.94457e-16 2.91089e-16 1.04021e-14 13.6709 1.64121e-13 12.7169 12.1015 1.85787e-15 1.71508e-15 4.50264e-13 0.0599626 13.513 7.0212 0 6.59718e-05 1.86273 12.8312 13.639 12.9011 13.1151 12.9574 13.0949 4.72484 3.97835 1.01374 0 3.77428e-14 3.5596e-05 8.56032 12.2491 7.42101e-09 7.69207e-06 8.87015e-05 0.00174686 13.0007 13.3769 12.6303 13.8548 13.6904 13.3562 0.905336 13.4461 3.71766 13.3602 12.9194 13.5597 13.6448 13.3626 12.432 6.42206</DataArray>
</PointData>
<CellData/>
<Points>
 <DataArray type="Float64" Name="Points" NumberOfComponents="3" format="ascii">919.519 660.937 0 815.002 692.085 0 787.503 694.462 0 765.958 699.745 0 732.337 711.231 0 703.825 723.061 0 679.577 733.424 0 652.751 744.857 0 552.275 789.362 0 1343.02 888.358 0 881.585 689.993 0 874.786 689.788 0 934.042 682.28 0 867.987 689.582 0 861.465 690.306 0 935.362 685.3 0 927.807 684.997 0 855.398 692.59 0 921.617 687.816 0 929.127 688.017 0 915.503 690.794 0 848.599 692.43 0 908.917 692.841 0 900.016 693.947 0 841.801 692.27 0 922.649 690.975 0 835.002 692.109 0 889.97 693.55 0 880.282 693.257 0 828.203 691.949 0 872.259 693.014 0 864.796 692.788 0 821.838 691.976 0 858.388 695.953 0 850.772 695.776 0 843.709 695.611 0 808.166 692.218 0 836.265 695.438 0 828.694 695.262 0 801.352 692.882 0 794.464 693.553 0 818.557 695.33 0 780.395 696.205 0 773.14 697.984 0 809.942 695.469 0 802.173 696.119 0 794.947 696.821 0 788.192 697.688 0 757.445 702.609 0 781.594 699.307 0 749.128 705.46 0 740.98 708.26 0 774.993 700.926 0 768.289 702.571 0 761.345 704.764 0 722.459 715.01 0 754.061 707.253 0 712.386 719.362 0 746.783 709.754 0 739.601 712.223 0 731.084 715.15 0 695.911 726.463 0 722.842 718.439 0 715.366 721.67 0 687.338 730.117 0 704.164 726.511 0 693.967 730.876 0 682.787 735.64 0 671.468 736.881 0 661.753 741.021 0 665.035 743.206 0 651.381 749.025 0 640.943 753.474 0 643.962 748.603 0 633.084 756.824 0 633.241 753.172 0 620.045 758.973 0 589.807 772.959 0 566.621 786.936 0 532.452 801.136 0 472.372 823.041 0 448.739 833.096 0 434.103 842.903 0 1478.83 986.447 0 1457.75 973.754 0 1381.17 916.02 0 1380.76 911.579 0 1361.24 897.271 0 1504.06 1000.2 0 1317.87 867.449 0 1476.78 989.083 0 1440.57 961.211 0 1282.15 847.372 0 1418.02 943.084 0 932.722 679.25 0 1450.82 973.083 0 926.487 681.967 0 1277.45 840.228 0 1401.77 928.988 0 1425.84 953.955 0 1362.26 902.093 0 920.412 684.747 0 1299.88 859.313 0 914.506 687.641 0 1398.75 930.731 0 908.226 689.612 0 901.749 690.696 0 895.183 690.405 0 1338.73 881.495 0 888.384 690.199 0 792.848 687.65 0 517.232 796.621 0 1047.56 676.366 0 1046.92 674.363 0 937.093 670.973 0 934.997 670.487 0 733.33 704.035 0 458.368 823.209 0 1046.78 707.263 0 1045.66 672.931 0 887.716 535.657 0 539.03 817.384 0 606.464 788.028 0 685.248 755.931 0 860.206 716.424 0 890.506 716.879 0 962.685 720.639 0 1115.61 763.596 0 1122.82 767.831 0 1144.64 780.646 0 939.7 710.34 0 939.499 712.432 0 939.299 714.524 0 1081.41 744.496 0 1095.79 740.974 0 1006.94 704.869 0 1010.1 698.408 0 1012.1 691.499 0 1014.07 684.576 0 1170.58 776.143 0 709.162 731.535 0 782.31 705.928 0 819.132 701.924 0 842.615 702.17 0 911.354 705.72 0 1009.28 720.324 0 1073.73 723.284 0 1133.81 764.693 0 746.13 716.959 0 877.463 593.862 0 900.449 626.891 0 956.842 685.83 0 978.314 699.206 0 1041.09 715.428 0 1127.73 756.06 0</DataArray>
</Points>
<Verts>
 <DataArray type="Int64" Name="connectivity" format="ascii">0 1 2 3 4 5 6 7 8 9 10 11 12 13 14 15 16 17 18 19 20 21 22 23 24 25 26 27 28 29 30 31 32 33 34 35 36 37 38 39 40 41 42 43 44 45 46 47 48 49 50 51 52 53 54 55 56 57 58 59 60 61 62 63 64 65 66 67 68 69 70 71 72 73 74 75 76 77 78 79 80 81 82 83 84 85 86 87 88 89 90 91 92 93 94 95 96 97 98 99 100 101 102 103 104 105 106 107 108 109 110 111 112 113 114 115 116 117 118 119 120 121 122 123 124 125 126 127 128 129 130 131 132 133 134 135 136 137 138 139 140 141 142 143 144 145 146 147 148 149 150 151 152 153 154</DataArray>
 <DataArray type="Int64" Name="offsets" format="ascii">155</DataArray>
</Verts>
<Lines>
 <DataArray type="Int64" Name="connectivity" format="ascii"/>
 <DataArray type="Int64" Name="offsets" format="ascii"/>
</Lines>
<Stripes>
 <DataArray type="Int64" Name="connectivity" format="ascii"/>
 <DataArray type="Int64" Name="offsets" format="ascii"/>
</Stripes>
<Polys>
 <DataArray type="Int64" Name="connectivity" format="ascii"/>
 <DataArray type="Int64" Name="offsets" format="ascii"/>
</Polys>
</Piece>
</PolyData>
</VTKFile>