<?xml version="1.0" encoding="UTF-8" ?>
<VTKFile type="PolyData" version="0.1" order="LittleEndian">
<PolyData>
 <Piece NumberOfPoints="182" NumberOfVerts="1" NumberOfLines="0" NumberOfStrips="0" NumberOfPolys="0">
<PointData>
 <DataArray type="Float64" Name="speed" format="ascii">8.698 0.817513 2.48584 1.24271 0.0572335 4.43442e-07 3.47896e-10 6.46029e-08 9.59078e-07 7.87195e-05 0.000537435 0.0016151 0.177968 8.11888 4.71807 1.58409 6.71249 7.00125 7.76372e-06 0.00716065 0.123285 1.04846 2.86182 3.84844 13.5161 12.6202 2.13467 6.39665 9.39575 1.95053 0.462472 7.20487 0.678783 2.45463 7.9664 9.16886 2.50233 2.53106 2.6838 3.99137 1.80948 2.22415 6.21245 4.22879 6.50923 0.664494 0.000361938 1.29852 0.0090744 0.101473 1.03186 3.28038 7.56761 11.9641 0.918484 9.4396 7.66542 5.43196 0.922694 0.182661 2.60194 1.23487 0.534283 0.0315734 0.629693 0.00179589 8.24663e-05 0.989884 0.287752 1.39944 0.613212 6.88958e-12 0.59316 3.64494e-10 0.648747 1.36024e-09 1.83245 0.657518 9.70926e-09 1.03017e-08 0.494436 0.737933 0.86828 6.62947e-08 0.242675 0.223842 0.0856559 5.58257e-06 0.223334 0.413819 0.484659 2.05264e-05 0.206085 0.506938 0.495857 0.000145752 1.07039 0.447595 0.000274393 0.815642 0.00248018 0.653967 0.00312797 0.261789 1.40964 1.12739 0.580159 0.00818511 1.06858 0.0138498 0.254901 0.0509217 0.140536 0.349676 0.297942 11.4458 12.4853 10.6027 3.80025 0 12.4293 13.1622 6.18664 13.1721 12.8405 1.54092 0.134272 4.46417 13.5507 12.7189 0.0615047 1.34659 13.0295 13.4562 13.8359 13.8594 13.3905 13.3711 11.8116 8.16968 4.33363 0.797499 1.54263e-13 4.28319e-10 7.691e-09 0 13.5019 0.903771 13.5322 13.2195 1.12833e-15 2.98571e-08 1.25407 12.6993 12.5702 13.6346 12.6551 12.6791 6.98311 3.61152 2.04849 1.05293 8.28713 1.13559 13.5015 12.381 5.47595e-07 5.18139e-14 0.00289449 1.38658e-07 0.0288591 0.00821338 3.07326 0.00476293 2.74759 6.85433 8.24049 9.63773 7.77783 5.71887 9.5068 5.34956</DataArray>
</PointData>
<CellData/>
<Points>
 <DataArray type="Float64" Name="Points" NumberOfComponents="3" format="ascii">918.525 647.693 0 810.586 692.156 0 786.001 694.83 0 758.34 702.304 0 735.608 710.107 0 710.133 720.336 0 691.34 728.411 0 666.313 739.078 0 647.542 747.077 0 628.772 755.077 0 610.174 763.539 0 591.639 772.112 0 566.773 783.263 0 453.523 831.061 0 1030.88 672.229 0 997.23 651.017 0 974.971 652.204 0 962.529 660.723 0 932.722 679.25 0 926.395 682.007 0 920.271 684.815 0 914.224 687.765 0 906.504 690.022 0 896.991 690.477 0 1105.56 733.469 0 1087.94 717.389 0 885.883 690.124 0 1042.52 682.052 0 994.581 653.208 0 874.926 689.792 0 865.975 689.521 0 1054.22 690.587 0 858.876 692.672 0 850.382 692.472 0 1066.79 704.54 0 1058.47 690.43 0 1016.45 668.251 0 1011.44 668.783 0 839.796 692.222 0 1026.6 673.724 0 830.061 691.993 0 820.078 692.004 0 1008.84 658.93 0 1008.51 662.698 0 998.95 660.175 0 802.818 692.739 0 934.042 682.28 0 794.394 693.56 0 927.804 684.998 0 921.579 687.834 0 915.019 691.004 0 776.932 697.054 0 906.52 693.383 0 890.959 693.58 0 766.231 699.678 0 871.214 692.982 0 854.171 695.855 0 837.533 695.468 0 749.776 705.238 0 742.268 707.818 0 823.235 695.255 0 812.709 695.424 0 804.209 695.921 0 729.054 712.359 0 796.751 696.646 0 722.684 714.913 0 716.408 717.625 0 781.51 699.327 0 789.067 697.473 0 773.223 701.361 0 764.718 703.614 0 703.858 723.047 0 757.599 706.042 0 697.597 725.745 0 750.383 708.517 0 685.083 731.078 0 742.91 711.086 0 734.405 714.009 0 678.826 733.744 0 672.57 736.411 0 727.148 716.578 0 720.381 719.502 0 713.228 722.594 0 660.056 741.744 0 705.906 725.758 0 699.364 728.576 0 692.833 731.359 0 641.285 749.744 0 686.399 734.101 0 679.897 736.872 0 672.747 739.92 0 635.029 752.411 0 665.812 742.875 0 659.127 745.724 0 652.313 748.628 0 622.527 757.825 0 645.45 751.553 0 638.134 754.671 0 616.35 760.682 0 631.438 757.525 0 603.998 766.396 0 624.228 760.677 0 597.819 769.253 0 617.421 763.826 0 610.884 766.85 0 603.389 770.318 0 595.995 773.739 0 585.461 774.969 0 589.24 776.864 0 579.29 777.719 0 581.677 780.265 0 573.056 780.48 0 575.094 783.182 0 568.652 786.036 0 560.177 786.094 0 547.785 791.219 0 518.9 806.832 0 472.354 823.048 0 436.541 838.286 0 432.399 843.628 0 1105.22 727.368 0 1080.59 709.252 0 1043.22 678.687 0 899.803 681.543 0 621.588 750.664 0 428.719 836.844 0 1047.54 676.308 0 1041.38 671.076 0 867.424 682.282 0 571.766 772.217 0 1046.8 707.236 0 1046.67 673.555 0 594.248 793.346 0 624.93 779.989 0 644.392 771.756 0 703.463 748.876 0 786.046 717.185 0 934.178 717.534 0 1022.62 728.637 0 1088.03 747.399 0 1130.52 772.353 0 940.195 688.293 0 941.122 691.037 0 941.276 693.088 0 941.087 695.18 0 939.7 710.34 0 974.932 722.274 0 1143.81 780.156 0 1437.38 971.199 0 716.13 728.527 0 974.515 643.738 0 972.695 646.488 0 968.774 639.941 0 873.993 702.966 0 833.352 701.967 0 897.757 703.958 0 968.028 708.439 0 990.303 712.957 0 1033.31 721.668 0 1049.66 722.426 0 1060.94 722.94 0 1068.82 722.914 0 1086.19 733.054 0 1137.72 767.597 0 745.079 717.32 0 766.38 710.027 0 653.799 744.411 0 955.063 684.553 0 960.588 688.518 0 956.983 681.873 0 966.645 690.834 0 958.906 679.195 0 971.983 690.599 0 962.51 685.839 0 1005.41 713.321 0 964.513 683.211 0 1024.41 714.606 0 993.308 706.078 0 1010.99 710.51 0 1075.5 724.39 0 1116.17 747.46 0 1131.4 758.783 0</DataArray>
</Points>
<Verts>
 <DataArray type="Int64" Name="connectivity" format="ascii">0 1 2 3 4 5 6 7 8 9 10 11 12 13 14 15 16 17 18 19 20 21 22 23 24 25 26 27 28 29 30 31 32 33 34 35 36 37 38 39 40 41 42 43 44 45 46 47 48 49 50 51 52 53 54 55 56 57 58 59 60 61 62 63 64 65 66 67 68 69 70 71 72 73 74 75 76 77 78 79 80 81 82 83 84 85 86 87 88 89 90 91 92 93 94 95 96 97 98 99 100 101 102 103 104 105 106 107 108 109 110 111 112 113 114 115 116 117 118 119 120 121 122 123 124 125 126 127 128 129 130 131 132 133 134 135 136 137 138 139 140 141 142 143 144 145 146 147 148 149 150 151 152 153 154 155 156 157 158 159 160 161 162 163 164 165 166 167 168 169 170 171 172 173 174 175 176 177 178 179 180 181</DataArray>
 <DataArray type="Int64" Name="offsets" format="ascii">182</DataArray>
</Verts>
<Lines>
 <DataArray type="Int64" Name="connectivity" format="ascii"/>
 <DataArray type="Int64" Name="offsets" format="ascii"/>
</Lines>
<Stripes>
 <DataArray type="Int64" Name="connectivity" format="ascii"/>
 <DataArray type="Int64" Name="offsets" format="ascii"/>
</Stripes>
<Polys>
 <DataArray type="Int64" Name="connectivity" format="ascii"/>
 <DataArray type="Int64" Name="offsets" format="ascii"/>
</Polys>
</Piece>
</PolyData>
</VTKFile>