<?xml version="1.0" encoding="UTF-8" ?>
<VTKFile type="PolyData" version="0.1" order="LittleEndian">
<PolyData>
 <Piece NumberOfPoints="147" NumberOfVerts="1" NumberOfLines="0" NumberOfStrips="0" NumberOfPolys="0">
<PointData>
 <DataArray type="Float64" Name="speed" format="ascii">3.73134e-15 3.78566e-15 2.35135e-13 7.59362e-10 4.03191e-08 1.69213e-06 0.00012998 13.8363 0.98463 0.215838 0.215199 1.17651 0.0153796 0.00124019 0.978116 0.133102 4.75072e-15 1.05781 0.866992 1.48708 3.81841e-15 0.524955 0.712689 4.21312e-15 0.574944 3.1822e-14 0.655436 0.679002 1.51999e-12 0.443422 0.55823 6.84029e-12 0.111964 0.0630647 0.0527509 1.17648e-09 0.0127038 0.0379627 4.67707e-09 1.83289e-08 0.158673 4.17198e-07 7.22551e-07 0.211134 0.185885 0.946645 1.02866 1.23688e-05 1.0981 1.36939e-05 6.40777e-05 0.86396 1.69255 2.00276 0.000298019 1.8064 0.0911082 13.7012 13.0236 13.1598 13.3621 13.8259 12.5903 7.29203 1.45345 0.000512007 6.92598 0 1.47904 3.04243 0.704023 1.25878 3.16414 9.77437 1.14937 5.71637 3.33754 9.88296 0.781074 0.48378 8.773 8.72878 1.72629 0.189465 0.141127 4.41289 6.46127 4.01434 1.15007 2.08744 1.77537 0.928555 12.9563 13.0486 5.0517 13.7561 10.2667 10.9 6.11664 4.69927 12.8595 4.34815 0.144559 13.8177 9.75024 13.7529 13.035 12.9998 13.2755 12.9976 13.5299 12.8704 10.0541 4.58871 0.722518 1.14081e-05 0.0005492 0.00337271 0.0122592 0 5.38576 7.72911 7.95767 4.59497 1.07477e-15 2.24064e-05 2.20429 2.88995 6.8574 6.68276 5.21751 4.30841 2.50808 0.372072 9.63133 2.00936 0.0388034 5.73527 6.2239 2.23317 3.81708 0.472849 1.51428 0.000178931 0.0405406 8.35275 5.67112</DataArray>
</PointData>
<CellData/>
<Points>
 <DataArray type="Float64" Name="Points" NumberOfComponents="3" format="ascii">815.003 692.085 0 794.564 693.543 0 774.515 697.647 0 754.879 703.485 0 729.022 712.37 0 710.133 720.336 0 685.083 731.078 0 615.338 761.151 0 891.873 693.608 0 842.321 692.282 0 835.251 692.115 0 883.652 693.359 0 828.22 691.949 0 821.839 691.976 0 875.656 693.117 0 867.799 692.879 0 808.17 692.217 0 860.929 694.072 0 852.635 695.819 0 844.734 695.635 0 801.367 692.88 0 835.803 695.428 0 827.876 695.243 0 787.793 694.391 0 820.172 695.304 0 781.154 696.019 0 812.195 695.433 0 804.083 695.933 0 767.877 699.275 0 796.275 696.692 0 789.06 697.475 0 761.348 701.277 0 781.94 699.222 0 775.2 700.876 0 768.536 702.511 0 748.414 705.706 0 762.027 704.532 0 755.577 706.732 0 741.95 707.927 0 735.486 710.148 0 749.116 708.953 0 722.682 714.913 0 716.408 717.625 0 742.513 711.222 0 735.743 713.549 0 728.928 715.891 0 721.479 719.028 0 703.858 723.047 0 714.001 722.26 0 697.597 725.745 0 691.34 728.411 0 706.366 725.559 0 699.325 728.592 0 690.67 732.281 0 678.826 733.745 0 681.947 735.998 0 672.526 736.429 0 655.514 747.264 0 625.088 760.287 0 584.636 775.352 0 553.069 789.034 0 517.921 807.248 0 475.136 821.865 0 447.639 833.564 0 432.446 840.028 0 1044.4 679.306 0 1024.49 672.617 0 960.359 662.537 0 954.88 667.082 0 945.91 673.471 0 1042.72 682.155 0 937.023 677.433 0 1034.81 678.015 0 993.617 652.551 0 929.613 680.605 0 971.212 654.154 0 915.955 687.003 0 1010.65 664.176 0 906.394 690.043 0 922.32 683.836 0 953.606 672.285 0 966.593 661.626 0 917.137 690.082 0 898.96 690.587 0 908.866 692.853 0 891.553 690.295 0 925.627 685.946 0 878.717 689.907 0 867.228 689.559 0 859.86 691.988 0 900.729 693.993 0 850.34 692.471 0 892.177 635 0 628.777 747.554 0 448.168 827.817 0 1218.81 795.842 0 1142.38 746.45 0 1113.1 723.11 0 1002.35 646.1 0 987.657 638.228 0 698.691 717.308 0 436.984 832.868 0 1046.79 707.254 0 1189.71 777.399 0 1130.95 736.692 0 1047.24 675.358 0 523.385 824.195 0 603.7 789.231 0 701.802 749.519 0 810.524 716.721 0 860.724 716.432 0 968.57 721.425 0 1066.24 740.037 0 1132.6 773.573 0 1144.89 780.793 0 940.45 689.048 0 941.122 691.038 0 941.276 693.09 0 941.087 695.186 0 939.7 710.34 0 1120.79 766.639 0 1521.13 995.735 0 923.696 706.364 0 941.506 707.289 0 974.515 643.738 0 968.843 639.987 0 878.991 533.176 0 953.774 707.834 0 1033.45 721.675 0 1037.33 718.557 0 1047.47 722.326 0 1059.58 722.878 0 1070.4 722.741 0 1077.35 725.77 0 1107.3 744.981 0 1137.02 767.076 0 955.071 684.559 0 1037.17 715.247 0 1035.77 711.874 0 1051.58 715.91 0 1048.88 712.48 0 1060.87 716.333 0 1059.98 712.986 0 1068.75 713.532 0 1075.8 716.997 0 1084.6 723.189 0 1129.55 757.407 0</DataArray>
</Points>
<Verts>
 <DataArray type="Int64" Name="connectivity" format="ascii">0 1 2 3 4 5 6 7 8 9 10 11 12 13 14 15 16 17 18 19 20 21 22 23 24 25 26 27 28 29 30 31 32 33 34 35 36 37 38 39 40 41 42 43 44 45 46 47 48 49 50 51 52 53 54 55 56 57 58 59 60 61 62 63 64 65 66 67 68 69 70 71 72 73 74 75 76 77 78 79 80 81 82 83 84 85 86 87 88 89 90 91 92 93 94 95 96 97 98 99 100 101 102 103 104 105 106 107 108 109 110 111 112 113 114 115 116 117 118 119 120 121 122 123 124 125 126 127 128 129 130 131 132 133 134 135 136 137 138 139 140 141 142 143 144 145 146</DataArray>
 <DataArray type="Int64" Name="offsets" format="ascii">147</DataArray>
</Verts>
<Lines>
 <DataArray type="Int64" Name="connectivity" format="ascii"/>
 <DataArray type="Int64" Name="offsets" format="ascii"/>
</Lines>
<Stripes>
 <DataArray type="Int64" Name="connectivity" format="ascii"/>
 <DataArray type="Int64" Name="offsets" format="ascii"/>
</Stripes>
<Polys>
 <DataArray type="Int64" Name="connectivity" format="ascii"/>
 <DataArray type="Int64" Name="offsets" format="ascii"/>
</Polys>
</Piece>
</PolyData>
</VTKFile>