<?xml version="1.0" encoding="UTF-8" ?>
<VTKFile type="PolyData" version="0.1" order="LittleEndian">
<PolyData>
 <Piece NumberOfPoints="176" NumberOfVerts="1" NumberOfLines="0" NumberOfStrips="0" NumberOfPolys="0">
<PointData>
 <DataArray type="Float64" Name="speed" format="ascii">3.18488e-09 7.81825e-08 7.84416e-07 0.000270362 0.0138108 0.107535 0.573295 0.25908 2.20092 1.97304 3.23167 2.69123 0.948565 13.3882 13.5036 13.3371 0 0 0 2.26813e-16 0 3.31945e-16 1.64361e-15 13.7077 8.71951e-16 1.20368e-15 0 3.10575e-16 13.8075 12.5432 0 6.31699e-16 1.00592e-15 13.4188 13.4252 2.36003e-13 0 1.24652e-11 0 0 1.07469e-13 1.04898e-11 6.79929e-12 4.4855e-11 6.08434e-11 0 1.87974e-10 6.01657e-09 3.57426e-09 4.11628e-08 3.5229e-08 4.14301e-06 1.11519e-07 1.52025e-07 2.54289e-05 5.09934e-07 1.06736e-06 0.00194403 0.000291674 0.00140429 0.024822 2.99655e-05 0.0620988 3.60836e-05 0.441103 0.000397619 0.537896 0.325831 0.0023777 0.00300261 0.178327 0.225507 0.279943 0.0380249 0.210048 0.628509 0.452485 0.0719433 0.664151 0.715141 0.638092 0.18732 1.15803 0.69884 0.615729 1.35858 0.490956 0.37372 1.02971 0.258519 1.37759 0.174916 0.412102 0.115162 0.472945 2.02147 1.2746 0.777552 1.01458 1.93307 1.21142 2.39906 0.715916 2.14613 5.73889 7.77179 8.20144 4.87412 8.04661 6.4798 4.1346 3.91141 4.103 3.58586 0.994001 1.18998 1.08931 0.581913 1.23644 3.62055 1.17698 2.26577 0.442413 0.905124 12.1855 5.53901 1.09656 13.2711 13.1264 7.08395 8.92798 4.06336 2.04251e-17 1.51248e-08 13.5656 11.7609 5.37355 7.22657 3.43951 9.27916 13.041 13.6684 13.4612 13.5405 12.7289 13.4951 11.0996 2.74149 1.73671 1.11807 0.65654 0.00125548 5.33478 7.585e-10 13.6421 13.351 0.0209292 3.40235 0.113482 12.9112 12.773 12.5694 4.1065e-08 5.95914e-05 0.0136406 12.644 3.42632 0.0458925 12.9173 9.90429e-13 1.56025e-10 1.29805e-06 0.0117429 1.66732 11.07 7.39635</DataArray>
</PointData>
<CellData/>
<Points>
 <DataArray type="Float64" Name="Points" NumberOfComponents="3" format="ascii">815.003 692.085 0 794.564 693.543 0 767.877 699.275 0 748.414 705.706 0 722.671 714.918 0 703.741 723.098 0 684.266 731.426 0 662.17 740.843 0 639.631 750.449 0 607.164 764.931 0 571.455 781.19 0 540.658 794.167 0 505.655 808.879 0 1532.98 1014.27 0 1439.29 960.243 0 1422.34 951.017 0 932.722 679.25 0 926.487 681.967 0 920.412 684.747 0 914.506 687.641 0 908.226 689.612 0 901.749 690.696 0 895.183 690.405 0 1460.91 975.842 0 888.384 690.199 0 881.585 689.993 0 874.786 689.788 0 867.987 689.582 0 1554.17 1028.25 0 1529.76 1016.38 0 861.465 690.306 0 855.398 692.59 0 848.599 692.43 0 1481.4 987.887 0 1509.72 1002.96 0 841.801 692.27 0 934.042 682.28 0 835.002 692.109 0 935.362 685.3 0 927.715 685.036 0 921.526 687.859 0 828.203 691.949 0 915.411 690.834 0 909.668 696.051 0 821.838 691.976 0 929.127 688.017 0 901.991 693.99 0 894.983 693.702 0 808.17 692.217 0 801.367 692.88 0 888.084 696.789 0 874.486 696.381 0 881.385 693.29 0 787.793 694.391 0 867.787 692.879 0 781.154 696.019 0 774.515 697.647 0 855.226 695.879 0 861.298 693.683 0 848.421 695.721 0 841.619 695.563 0 761.348 701.277 0 834.776 695.404 0 754.879 703.485 0 827.87 695.243 0 741.949 707.927 0 821.023 695.29 0 813.329 695.414 0 735.483 710.15 0 729.015 712.372 0 806.042 695.743 0 799 696.427 0 792.026 697.105 0 716.378 717.638 0 784.977 698.477 0 777.724 700.256 0 769.951 702.164 0 697.325 725.861 0 762.681 704.309 0 755.609 706.721 0 747.929 709.361 0 690.873 728.61 0 740.624 711.871 0 732.665 714.607 0 725.272 717.389 0 677.228 734.425 0 718.149 720.467 0 711.435 723.368 0 669.652 737.654 0 704.816 726.229 0 655.462 743.702 0 698.212 729.067 0 647.507 747.093 0 691.753 731.819 0 685.143 734.636 0 678.281 737.561 0 669.739 741.201 0 631.196 754.044 0 661.767 744.599 0 623.952 757.18 0 653.663 748.053 0 615.688 760.988 0 646.29 751.195 0 638.479 754.524 0 595.197 770.466 0 614.189 765.321 0 629.408 758.39 0 583.322 775.934 0 600.384 771.708 0 585.465 778.587 0 561.727 785.452 0 570.003 785.437 0 551.076 789.858 0 559.868 789.79 0 548.933 794.316 0 530.604 798.326 0 541.269 797.487 0 533.19 800.831 0 526.239 803.717 0 522.67 801.639 0 513.056 805.73 0 518.808 806.871 0 510.397 810.449 0 503.696 813.299 0 479.654 819.942 0 445.452 838.075 0 432.118 840.168 0 882.779 617.91 0 694.427 719.153 0 468.858 818.471 0 1089.42 705.816 0 1058.26 686.474 0 937.093 670.973 0 935.043 670.497 0 880.732 682.387 0 532.528 789.711 0 1026.43 729.145 0 1075.79 698.362 0 1052.24 683.651 0 921.259 576.03 0 540.003 816.96 0 621.267 781.584 0 690.49 753.9 0 790.227 717.106 0 913.113 717.218 0 984.279 723.521 0 1065.37 739.779 0 1137.08 776.204 0 940.139 705.574 0 939.697 710.368 0 939.362 713.858 0 939.537 716.568 0 1117.57 764.749 0 1047.46 722.326 0 838.896 702.088 0 862.063 702.604 0 943.711 707.404 0 950.697 707.705 0 978.115 638.201 0 940.554 605.766 0 722.888 725.609 0 744.579 717.492 0 1008.68 720.289 0 1054.25 722.635 0 1061.06 722.946 0 1077.41 725.82 0 1134.9 765.499 0 710.059 720.368 0 555.711 794.704 0 1009.07 713.699 0 1009.26 710.409 0 1047.76 715.736 0 1047.91 712.436 0 1054.77 716.055 0 1105.91 739.832 0 1125.18 754.161 0</DataArray>
</Points>
<Verts>
 <DataArray type="Int64" Name="connectivity" format="ascii">0 1 2 3 4 5 6 7 8 9 10 11 12 13 14 15 16 17 18 19 20 21 22 23 24 25 26 27 28 29 30 31 32 33 34 35 36 37 38 39 40 41 42 43 44 45 46 47 48 49 50 51 52 53 54 55 56 57 58 59 60 61 62 63 64 65 66 67 68 69 70 71 72 73 74 75 76 77 78 79 80 81 82 83 84 85 86 87 88 89 90 91 92 93 94 95 96 97 98 99 100 101 102 103 104 105 106 107 108 109 110 111 112 113 114 115 116 117 118 119 120 121 122 123 124 125 126 127 128 129 130 131 132 133 134 135 136 137 138 139 140 141 142 143 144 145 146 147 148 149 150 151 152 153 154 155 156 157 158 159 160 161 162 163 164 165 166 167 168 169 170 171 172 173 174 175</DataArray>
 <DataArray type="Int64" Name="offsets" format="ascii">176</DataArray>
</Verts>
<Lines>
 <DataArray type="Int64" Name="connectivity" format="ascii"/>
 <DataArray type="Int64" Name="offsets" format="ascii"/>
</Lines>
<Stripes>
 <DataArray type="Int64" Name="connectivity" format="ascii"/>
 <DataArray type="Int64" Name="offsets" format="ascii"/>
</Stripes>
<Polys>
 <DataArray type="Int64" Name="connectivity" format="ascii"/>
 <DataArray type="Int64" Name="offsets" format="ascii"/>
</Polys>
</Piece>
</PolyData>
</VTKFile>