<?xml version="1.0" encoding="UTF-8" ?>
<VTKFile type="PolyData" version="0.1" order="LittleEndian">
<PolyData>
 <Piece NumberOfPoints="196" NumberOfVerts="1" NumberOfLines="0" NumberOfStrips="0" NumberOfPolys="0">
<PointData>
 <DataArray type="Float64" Name="speed" format="ascii">7.60316 3.35527e-06 0.243205 0.5677 0.915618 1.04333 3.84245 3.53713 0.21877 0.0649814 0.00362226 1.33139e-05 1.72197e-07 6.43725e-06 4.76062e-05 0.001753 3.51594 12.969 12.9445 13.1015 13.287 13.2624 13.4577 4.99449e-16 0 1.78301e-15 1.50746e-13 1.20077e-10 1.7933e-09 3.94248e-09 1.32621e-07 1.14958e-06 12.5204 1.30495e-05 13.0167 13.0902 12.782 2.02968e-05 13.686 13.5895 0.00024433 12.7383 12.8154 13.3275 0.000314631 0.000990584 12.9862 13.0823 12.9525 0.00191941 12.8123 0.0229297 0.106082 1.81596 0 0.737804 3.0019 0.318096 0.980481 0.907625 7.56792e-12 0.793417 6.87511e-11 3.44464e-10 0.35388 0.756347 5.51666e-09 4.37763e-08 7.67416e-07 1.78091 2.07192e-05 3.69944e-05 0.000115909 3.99235 0.00457575 0.0278113 0.036869 5.97454 0.122536 0.0685296 0.361798 3.88349 0.62195 1.51658 6.82631 0.300141 1.56246 3.63134 0.700644 8.08989 7.21237 6.92718 6.75997 0.473646 3.84151 0.271583 2.95524 0.057684 0.30783 1.30439 0.00413686 1.13872 1.06151 0.00775339 2.05292 0.775074 0.000485882 1.94132 0.000121332 0.680739 0.322319 1.99662e-06 1.51588 1.30804 1.18114 3.5433e-07 2.14826e-07 2.50899 0.770528 0.543372 2.53623e-06 0.609508 6.53705e-06 0.201807 0.316279 0.231919 8.39331e-06 0.271385 1.74116e-05 0.304696 0.843207 9.18588e-05 0.433922 0.623174 0.000508355 0.254475 0.393124 0.318854 0.0234128 0.761031 8.35791 8.88926 2.28418 8.85519 13.2498 4.12943 1.81803e-15 1.52114e-11 7.13762e-11 12.8969 9.98878e-05 13.473 0.692961 0.000480042 12.7133 12.9545 8.88178 3.94012 0 13.3937 13.3788 13.2902 12.7033 11.226 3.9788 2.4124 0.0971921 1.43964e-16 4.21064e-09 1.91974 3.03587 13.8711 0.267763 2.2312 4.27543 12.3176 13.3978 12.7036 13.206 12.373 12.7441 9.40895 8.78391 0.00285111 12.9782 6.73701 0.975874 0.000181798 13.4501 12.9971 5.11602 13.5201 8.00423 13.4968 11.6504 1.0773</DataArray>
</PointData>
<CellData/>
<Points>
 <DataArray type="Float64" Name="Points" NumberOfComponents="3" format="ascii">911.795 639.644 0 919.097 669.391 0 821.23 691.986 0 798.165 693.193 0 767.948 699.257 0 743.036 707.554 0 711.399 719.789 0 674.618 735.538 0 648.671 746.596 0 622.607 757.788 0 604.003 766.393 0 585.471 774.964 0 560.632 785.905 0 541.781 793.703 0 522.926 801.53 0 497.893 812.182 0 436.494 838.306 0 1354.99 896.794 0 1333.19 881.739 0 1292.96 854.65 0 1247.63 821.237 0 1143.12 763.387 0 1120.53 742.474 0 932.722 679.25 0 926.487 681.967 0 920.412 684.747 0 914.506 687.641 0 908.226 689.612 0 901.749 690.696 0 895.183 690.405 0 888.384 690.199 0 881.585 689.993 0 1374.58 906.983 0 874.786 689.788 0 1374.57 911.058 0 1311.58 867.192 0 1197.99 792.184 0 867.987 689.582 0 1142.19 758.584 0 1329.24 875.102 0 861.465 690.306 0 1349.2 888.548 0 1244.06 822.966 0 1217.07 803.351 0 855.398 692.59 0 848.598 692.43 0 1265.35 832.083 0 1307.38 860.385 0 1172.75 781.238 0 841.796 692.27 0 1193.76 793.533 0 834.972 692.109 0 828.002 691.944 0 934.958 685.476 0 934.042 682.28 0 927.677 685.053 0 919.105 689.084 0 813.847 692.104 0 909.965 692.576 0 805.97 692.432 0 902.095 693.986 0 790.631 693.927 0 894.983 696.996 0 888.284 693.499 0 782.83 695.608 0 775.61 697.378 0 881.385 696.588 0 874.686 693.088 0 867.787 696.18 0 759.908 701.768 0 861.373 693.604 0 855.327 695.882 0 848.526 695.723 0 734.173 710.6 0 841.721 695.565 0 834.907 695.407 0 828.055 695.247 0 723.474 714.571 0 821.74 695.279 0 814.8 695.391 0 807.792 695.572 0 700.973 724.294 0 800.663 696.265 0 793.224 696.989 0 691.013 728.551 0 784.766 698.529 0 664.167 739.992 0 777.057 700.42 0 655.768 743.572 0 765.329 703.406 0 750.699 708.409 0 736.951 713.133 0 723.863 717.998 0 642.15 749.375 0 710.182 723.91 0 635.447 752.232 0 700.084 728.268 0 628.914 755.017 0 690.802 732.225 0 684.052 735.101 0 616.367 760.674 0 667.755 742.047 0 675.596 738.705 0 610.187 763.533 0 660.257 745.242 0 651.488 748.98 0 597.824 769.251 0 644.062 752.145 0 591.647 772.108 0 635.568 755.765 0 628.392 758.836 0 579.312 777.709 0 621.202 762.077 0 613.073 765.837 0 605.221 769.47 0 573.095 780.463 0 566.877 783.217 0 597.945 772.836 0 589.051 776.951 0 582.067 780.093 0 554.348 788.505 0 575.295 783.093 0 548.064 791.104 0 568.262 786.209 0 561.73 789.019 0 555.012 791.8 0 535.497 796.302 0 548.46 794.511 0 529.213 798.901 0 541.825 797.257 0 535.244 799.981 0 516.668 804.193 0 527.985 802.985 0 521.311 805.806 0 504.152 809.519 0 514.229 808.819 0 507.672 811.608 0 500.663 814.589 0 491.628 814.847 0 493.827 817.498 0 485.894 820.872 0 454.284 830.737 0 434.5 842.734 0 910.701 666.477 0 628.745 747.568 0 440.305 831.368 0 1047.56 676.366 0 1046.92 674.363 0 1045.66 672.931 0 945.081 604.597 0 937.093 670.973 0 683.553 723.857 0 427.462 837.917 0 1043.73 672.095 0 880.051 716.722 0 974.252 722.183 0 1077.69 743.401 0 1133.14 773.891 0 1145.51 781.159 0 490.2 838.641 0 606.483 788.02 0 689.703 754.206 0 798.539 716.948 0 865.387 586.286 0 899.238 645.138 0 903.476 651.108 0 909.79 657.741 0 939.604 711.337 0 939.404 713.429 0 939.293 715.804 0 1138.9 777.275 0 1070.74 703.97 0 1006.98 704.789 0 1010.37 697.581 0 881.714 536.387 0 1060.03 697.14 0 729.629 722.699 0 754.385 714.121 0 825.397 701.832 0 847.218 702.271 0 938.821 707.151 0 999.233 718.284 0 1016.74 720.761 0 1047.46 722.326 0 1064.54 723.104 0 1123.73 757.194 0 751.362 704.693 0 510.41 806.856 0 913.908 705.853 0 877.257 593.427 0 922.296 651.714 0 946.75 671.568 0 993.848 710.408 0 1036.73 715.226 0 1102.69 737.661 0 1137.76 767.632 0</DataArray>
</Points>
<Verts>
 <DataArray type="Int64" Name="connectivity" format="ascii">0 1 2 3 4 5 6 7 8 9 10 11 12 13 14 15 16 17 18 19 20 21 22 23 24 25 26 27 28 29 30 31 32 33 34 35 36 37 38 39 40 41 42 43 44 45 46 47 48 49 50 51 52 53 54 55 56 57 58 59 60 61 62 63 64 65 66 67 68 69 70 71 72 73 74 75 76 77 78 79 80 81 82 83 84 85 86 87 88 89 90 91 92 93 94 95 96 97 98 99 100 101 102 103 104 105 106 107 108 109 110 111 112 113 114 115 116 117 118 119 120 121 122 123 124 125 126 127 128 129 130 131 132 133 134 135 136 137 138 139 140 141 142 143 144 145 146 147 148 149 150 151 152 153 154 155 156 157 158 159 160 161 162 163 164 165 166 167 168 169 170 171 172 173 174 175 176 177 178 179 180 181 182 183 184 185 186 187 188 189 190 191 192 193 194 195</DataArray>
 <DataArray type="Int64" Name="offsets" format="ascii">196</DataArray>
</Verts>
<Lines>
 <DataArray type="Int64" Name="connectivity" format="ascii"/>
 <DataArray type="Int64" Name="offsets" format="ascii"/>
</Lines>
<Stripes>
 <DataArray type="Int64" Name="connectivity" format="ascii"/>
 <DataArray type="Int64" Name="offsets" format="ascii"/>
</Stripes>
<Polys>
 <DataArray type="Int64" Name="connectivity" format="ascii"/>
 <DataArray type="Int64" Name="offsets" format="ascii"/>
</Polys>
</Piece>
</PolyData>
</VTKFile>