<?xml version="1.0" encoding="UTF-8" ?>
<VTKFile type="PolyData" version="0.1" order="LittleEndian">
<PolyData>
 <Piece NumberOfPoints="79" NumberOfVerts="1" NumberOfLines="0" NumberOfStrips="0" NumberOfPolys="0">
<PointData>
 <DataArray type="Float64" Name="speed" format="ascii">7.33021 13.4259 13.0277 1.16383 2.22019 4.01881e-14 3.77036e-14 0.000331426 4.62727e-12 1.37151e-05 1.97782e-08 0.127447 0.00408763 0.0352488 0.0220452 0 0.276236 8.94276 13.6121 13.4426 13.3382 13.7137 12.4684 13.7264 12.8859 13.8424 0 13.4939 13.3809 9.31279 5.30417 0 1.79502 3.182e-16 1.67154e-08 8.24412e-16 1.99919e-10 1.64418e-06 12.8864 9.30712 1.73858 1.17149 10.436 13.5177 1.41807 10.8175 13.861 11.4165 13.8751 6.63322 1.58833 13.1248 13.1075 13.0364 2.22425 4.23758 2.87225 2.32824 1.2746 10.4765 1.35471 0.106936 2.72741 3.35111e-08 4.46119 12.9089 12.4574 1.57525e-08 2.9848e-07 0.00228905 0.10486 9.38285 3.08783e-10 1.99751e-05 6.19058e-05 2.45226 12.369 4.76023 0</DataArray>
</PointData>
<CellData/>
<Points>
 <DataArray type="Float64" Name="Points" NumberOfComponents="3" format="ascii">920.632 655.636 0 720.743 715.751 0 482.895 818.563 0 933.785 678.789 0 936.084 681.408 0 901.749 690.696 0 895.183 690.405 0 902.094 693.986 0 888.384 690.199 0 908.995 692.821 0 881.585 689.993 0 881.322 693.289 0 895.081 693.705 0 874.752 689.786 0 888.271 693.499 0 926.487 681.967 0 867.889 689.579 0 869.169 692.92 0 841.241 692.256 0 814.715 695.392 0 767.542 699.357 0 679.365 733.515 0 658.029 746.192 0 631.124 754.074 0 602.316 767.173 0 571.134 781.331 0 920.412 684.747 0 527.191 799.738 0 504.923 812.777 0 461.306 831.331 0 440.088 836.777 0 432.399 843.628 0 937.038 684.581 0 914.506 687.641 0 921.617 687.816 0 908.226 689.612 0 927.807 684.997 0 915.503 690.794 0 764.226 695.529 0 490.252 808.807 0 938.917 668.98 0 936.668 670.874 0 906.458 653.29 0 613.388 754.212 0 1035.65 731.115 0 1115.94 725.187 0 1048.04 677.683 0 958.703 720.108 0 984.559 723.558 0 1107.15 758.628 0 1142.21 779.216 0 546.631 814.075 0 638.588 774.043 0 746.11 732.357 0 937.582 717.577 0 941.067 690.874 0 940.363 703.15 0 939.758 709.712 0 939.253 715.079 0 1075.63 742.796 0 950.832 707.71 0 943.692 707.403 0 960.24 708.108 0 974.515 643.738 0 881.982 536.703 0 1407.08 933.617 0 750.12 715.587 0 1047.46 722.326 0 1054.25 722.635 0 1061.05 722.945 0 1067.33 723.008 0 1114.13 750.06 0 1047.76 715.736 0 1047.91 712.436 0 1054.55 716.045 0 1055 712.759 0 1096.53 733.027 0 1134.91 761.393 0 1138.63 768.275 0</DataArray>
</Points>
<Verts>
 <DataArray type="Int64" Name="connectivity" format="ascii">0 1 2 3 4 5 6 7 8 9 10 11 12 13 14 15 16 17 18 19 20 21 22 23 24 25 26 27 28 29 30 31 32 33 34 35 36 37 38 39 40 41 42 43 44 45 46 47 48 49 50 51 52 53 54 55 56 57 58 59 60 61 62 63 64 65 66 67 68 69 70 71 72 73 74 75 76 77 78</DataArray>
 <DataArray type="Int64" Name="offsets" format="ascii">79</DataArray>
</Verts>
<Lines>
 <DataArray type="Int64" Name="connectivity" format="ascii"/>
 <DataArray type="Int64" Name="offsets" format="ascii"/>
</Lines>
<Stripes>
 <DataArray type="Int64" Name="connectivity" format="ascii"/>
 <DataArray type="Int64" Name="offsets" format="ascii"/>
</Stripes>
<Polys>
 <DataArray type="Int64" Name="connectivity" format="ascii"/>
 <DataArray type="Int64" Name="offsets" format="ascii"/>
</Polys>
</Piece>
</PolyData>
</VTKFile>