<?xml version="1.0" encoding="UTF-8" ?>
<VTKFile type="PolyData" version="0.1" order="LittleEndian">
<PolyData>
 <Piece NumberOfPoints="62" NumberOfVerts="1" NumberOfLines="0" NumberOfStrips="0" NumberOfPolys="0">
<PointData>
 <DataArray type="Float64" Name="speed" format="ascii">13.55 13.7968 13.0791 1.74745e-05 0.00273036 12.7643 12.9875 13.698 13.4406 13.8742 12.8435 7.26859 1.02829 0.234063 1.45027 13.4604 12.898 12.443 13.3607 13.8031 12.9208 12.852 13.0721 5.20253 13.5104 13.2248 0.855291 1.55065e-06 7.43597 13.0649 13.1934 13.1985 13.778 12.3331 9.49043 3.90431 0 5.42626e-11 0.776636 2.75779 1.16665e-15 0.0352668 3.40076 5.4851e-16 13.2683 12.4219 13.8265 13.5105 13.0451 7.16762 12.8819 6.32106 7.82567 8.23824 4.58634 7.16413 3.99973 6.39614 9.79256 13.7341 10.8935 1.35303</DataArray>
</PointData>
<CellData/>
<Points>
 <DataArray type="Float64" Name="Points" NumberOfComponents="3" format="ascii">874.141 586.872 0 795.616 693.441 0 575.879 779.23 0 932.722 679.25 0 926.487 681.967 0 674.123 735.749 0 634.522 752.626 0 593.305 774.983 0 538.638 798.576 0 519.562 802.962 0 476.127 821.443 0 449.085 836.53 0 433.345 843.225 0 920.406 684.75 0 914.236 687.76 0 896.823 690.468 0 860.179 691.654 0 812.277 695.431 0 764.398 700.236 0 744.281 710.614 0 710.817 720.04 0 881.501 615.587 0 701.589 716.055 0 443.88 829.754 0 912.503 676.001 0 651.957 737.526 0 427.153 838.181 0 1046.78 707.263 0 922.53 577.555 0 597.789 791.804 0 724.744 740.633 0 835.58 716.247 0 947.418 718.602 0 1026.12 729.103 0 1067.73 740.473 0 1128.97 771.443 0 1145.51 781.159 0 939.604 711.337 0 939.358 713.905 0 1135.92 775.523 0 974.515 643.738 0 972.683 646.48 0 880.641 535.122 0 978.155 638.228 0 767.263 709.726 0 794.389 703.505 0 861.675 702.594 0 887.308 703.369 0 951.865 707.753 0 1001.34 718.768 0 1057.03 722.762 0 1125.19 758.281 0 941.618 670.515 0 943.191 667.348 0 953.562 683.399 0 947.7 667.378 0 956.374 681.436 0 964.266 689.978 0 976.857 698.161 0 1031.72 714.995 0 1108.04 741.417 0 1137.54 767.467 0</DataArray>
</Points>
<Verts>
 <DataArray type="Int64" Name="connectivity" format="ascii">0 1 2 3 4 5 6 7 8 9 10 11 12 13 14 15 16 17 18 19 20 21 22 23 24 25 26 27 28 29 30 31 32 33 34 35 36 37 38 39 40 41 42 43 44 45 46 47 48 49 50 51 52 53 54 55 56 57 58 59 60 61</DataArray>
 <DataArray type="Int64" Name="offsets" format="ascii">62</DataArray>
</Verts>
<Lines>
 <DataArray type="Int64" Name="connectivity" format="ascii"/>
 <DataArray type="Int64" Name="offsets" format="ascii"/>
</Lines>
<Stripes>
 <DataArray type="Int64" Name="connectivity" format="ascii"/>
 <DataArray type="Int64" Name="offsets" format="ascii"/>
</Stripes>
<Polys>
 <DataArray type="Int64" Name="connectivity" format="ascii"/>
 <DataArray type="Int64" Name="offsets" format="ascii"/>
</Polys>
</Piece>
</PolyData>
</VTKFile>