<?xml version="1.0" encoding="UTF-8" ?>
<VTKFile type="PolyData" version="0.1" order="LittleEndian">
<PolyData>
 <Piece NumberOfPoints="126" NumberOfVerts="1" NumberOfLines="0" NumberOfStrips="0" NumberOfPolys="0">
<PointData>
 <DataArray type="Float64" Name="speed" format="ascii">5.62326 13.262 9.93778 13.5427 12.4334 13.4992 11.6992 5.86136 2.92221 13.2606 2.74587e-13 12.9784 12.7648 3.60219e-06 13.6369 13.0805 6.64864e-05 7.83751 5.55494e-06 0.000331947 0.000839757 13.1688 13.3462 7.73958 0.0130306 13.3231 0.178912 7.13519 0.808905 1.93578 9.16699e-14 0.433803 7.09606e-12 3.90347e-10 0.968427 0.264286 4.48906e-07 0.000381958 0.266432 0.00746837 0.738119 0.00209144 0.275827 0.00178165 6.89922 0.0794594 0.252191 0.671511 6.25182 13.2208 13.123 12.4737 13.5277 12.4955 12.4944 12.9315 13.537 12.8353 13.6178 10.5722 5.99266 0 7.40114 13.1707 13.6191 6.26895e-14 6.62687e-05 13.2003 13.2899 0.258205 7.37429 1.69588e-08 4.6989 12.9485 13.841 13.4772 13.2374 13.798 13.8331 10.8962 13.603 11.2834 5.80314 0.720294 7.24821 4.67138 4.27883 2.93632 2.18828 2.08734 3.31162 13.1041 12.6261 6.58231e-16 7.87303e-16 0.00131096 11.7894 12.684 12.4589 13.3126 13.6863 12.535 13.8435 13.6296 8.56479 8.12156 5.93163 3.68643 10.0317 1.57894 13.0334 9.47958 12.938 10.7286 13.3062 7.97053 9.81982 7.63541 7.5634 7.01807 11.0802 6.1153 9.55037 11.1899 13.8085 7.39462</DataArray>
</PointData>
<CellData/>
<Points>
 <DataArray type="Float64" Name="Points" NumberOfComponents="3" format="ascii">919.19 670.732 0 691.625 728.29 0 461.851 827.517 0 1205.96 800.672 0 1159.25 773.338 0 1102.7 725.291 0 1067.29 700.194 0 1016.24 664.149 0 1005.03 656.332 0 1103.94 730.589 0 932.722 679.25 0 1180.89 786 0 1152.1 765.328 0 926.487 681.967 0 1174.18 778.25 0 1085.98 711.685 0 920.412 684.747 0 1041.57 681.555 0 971.406 654.043 0 914.506 687.641 0 908.224 689.612 0 1120.6 742.53 0 1087.76 717.242 0 1054.23 690.609 0 901.74 690.696 0 1129.32 753.123 0 895.159 690.405 0 1028.56 671.02 0 994.891 653.419 0 887.703 690.179 0 934.042 682.28 0 878.956 689.914 0 927.807 684.997 0 921.617 687.816 0 871.51 689.688 0 863.709 689.452 0 915.503 690.794 0 908.994 692.821 0 857.625 692.643 0 902.091 693.986 0 894.725 693.694 0 887.188 693.466 0 850.416 695.767 0 880.386 693.26 0 858.648 695.959 0 873.583 693.054 0 866.668 692.845 0 843.075 692.3 0 834.371 695.394 0 810.983 692.15 0 764.631 700.157 0 734.85 710.367 0 678.889 737.302 0 1200.89 793.88 0 643.293 748.888 0 615.887 760.897 0 592.544 771.693 0 553.206 788.977 0 496.134 816.516 0 468.134 828.427 0 441.2 836.304 0 431.109 840.597 0 465.309 820.074 0 870.547 595.667 0 730.731 704.75 0 1047.56 676.366 0 1045.66 672.931 0 887.339 626.203 0 648.795 738.894 0 426.699 838.568 0 1037.05 669.198 0 1046.92 674.363 0 900.083 550.637 0 480.602 842.819 0 500.151 834.309 0 517.419 826.791 0 597.373 791.985 0 679.804 758.04 0 776.858 720.447 0 938.689 717.58 0 973.701 722.109 0 1062.59 738.963 0 1121.97 767.333 0 1144.89 780.794 0 1106.08 757.998 0 930.864 671.588 0 936.746 673.935 0 938.268 682.179 0 940.373 688.82 0 941.214 693.776 0 939.444 713.01 0 643.536 759.55 0 667.417 749.368 0 974.515 643.738 0 978.155 638.228 0 972.695 646.488 0 908.829 573.458 0 758.361 712.756 0 720.441 726.666 0 777.991 706.99 0 843.385 702.187 0 901.495 705.055 0 935.68 706.989 0 961.938 708.181 0 1018.31 720.853 0 1034.45 721.721 0 1050.68 722.472 0 1063.56 723.06 0 1106.42 744.323 0 1137.36 767.332 0 909.129 636.455 0 932.871 661.763 0 911.123 633.694 0 934.64 658.889 0 914.792 632.937 0 944.968 674.632 0 937.674 657.229 0 948.06 673.367 0 949.676 670.09 0 957.331 686.181 0 973.426 691.635 0 993.056 709.867 0 989.03 703.018 0 1012.11 713.879 0 1082.17 721.186 0 1126.52 755.159 0</DataArray>
</Points>
<Verts>
 <DataArray type="Int64" Name="connectivity" format="ascii">0 1 2 3 4 5 6 7 8 9 10 11 12 13 14 15 16 17 18 19 20 21 22 23 24 25 26 27 28 29 30 31 32 33 34 35 36 37 38 39 40 41 42 43 44 45 46 47 48 49 50 51 52 53 54 55 56 57 58 59 60 61 62 63 64 65 66 67 68 69 70 71 72 73 74 75 76 77 78 79 80 81 82 83 84 85 86 87 88 89 90 91 92 93 94 95 96 97 98 99 100 101 102 103 104 105 106 107 108 109 110 111 112 113 114 115 116 117 118 119 120 121 122 123 124 125</DataArray>
 <DataArray type="Int64" Name="offsets" format="ascii">126</DataArray>
</Verts>
<Lines>
 <DataArray type="Int64" Name="connectivity" format="ascii"/>
 <DataArray type="Int64" Name="offsets" format="ascii"/>
</Lines>
<Stripes>
 <DataArray type="Int64" Name="connectivity" format="ascii"/>
 <DataArray type="Int64" Name="offsets" format="ascii"/>
</Stripes>
<Polys>
 <DataArray type="Int64" Name="connectivity" format="ascii"/>
 <DataArray type="Int64" Name="offsets" format="ascii"/>
</Polys>
</Piece>
</PolyData>
</VTKFile>