<?xml version="1.0" encoding="UTF-8" ?>
<VTKFile type="PolyData" version="0.1" order="LittleEndian">
<PolyData>
 <Piece NumberOfPoints="102" NumberOfVerts="1" NumberOfLines="0" NumberOfStrips="0" NumberOfPolys="0">
<PointData>
 <DataArray type="Float64" Name="speed" format="ascii">12.6824 12.8235 12.4431 1.70354e-06 0 0 0 12.8846 3.18597e-16 13.6236 0 0 12.7299 13.7102 2.34321e-16 13.1668 12.8731 0 6.67801e-16 13.4181 2.2733e-15 0 0 8.3969e-16 1.93721e-10 2.64211e-16 8.50978e-16 7.77063e-16 1.10584e-12 1.79719e-08 4.36916e-06 1.28386e-14 1.21496e-05 4.14716e-12 6.9574e-05 0.000401572 1.04555e-08 0.0012767 0.000164848 0.119964 12.4469 12.595 13.8987 13.5905 13.0567 12.9189 12.9186 13.783 12.9109 12.8076 13.5369 13.7086 5.06019 0 5.43628e-16 13.7154 13.2983 5.64859 10.9288 5.98315 4.15537 2.76824 6.80961e-13 0.0162773 13.3605 5.21531 3.61342 0.688734 0.830528 12.6994 12.9478 13.7129 13.2466 0.351284 12.948 9.13617 4.97262 0.684421 1.36775 1.22326 0.256107 0.244898 7.69969 5.49105 0.336029 9.56109 9.56576e-16 12.6987 12.7989 13.8892 13.2335 9.35129e-07 0.000266677 0.334764 10.7565 2.04547 0 1.12913e-07 1.03095e-05 0.020433 13.6664 6.62743</DataArray>
</PointData>
<CellData/>
<Points>
 <DataArray type="Float64" Name="Points" NumberOfComponents="3" format="ascii">877.156 593.215 0 839.406 688.918 0 602.217 767.219 0 973.271 656.776 0 932.722 679.25 0 926.487 681.967 0 920.412 684.747 0 1547.04 1024.78 0 914.506 687.641 0 1537.74 1016.58 0 908.226 689.612 0 921.526 687.859 0 1491.13 993.344 0 1431.19 958.256 0 901.749 690.696 0 1522.07 1012.63 0 1492.68 998.003 0 934.042 682.28 0 908.896 692.846 0 1464.05 977.917 0 895.183 690.405 0 935.362 685.3 0 927.715 685.036 0 888.384 690.199 0 894.983 693.702 0 915.411 690.834 0 881.585 689.993 0 874.786 689.788 0 901.991 693.99 0 888.184 693.496 0 881.385 693.29 0 867.987 689.582 0 874.586 693.085 0 861.465 690.306 0 867.787 692.879 0 861.298 693.683 0 855.398 692.59 0 855.226 695.879 0 848.599 692.43 0 848.41 695.721 0 1432.41 955.048 0 834.42 695.395 0 804.342 692.59 0 768.708 699.071 0 736.764 709.709 0 690.899 728.599 0 654.007 744.322 0 624.855 760.39 0 564.861 784.11 0 539.058 798.402 0 516.082 804.443 0 484.71 821.376 0 439.384 837.077 0 432.399 843.628 0 971.406 654.043 0 883.467 619.162 0 708.22 713.186 0 461.603 821.748 0 1104.02 716.482 0 1070.49 693.878 0 1056.76 686.143 0 1046.76 673.835 0 937.093 670.973 0 935.029 670.494 0 658.841 734.548 0 445.619 828.968 0 1050.87 682.298 0 1041.05 670.935 0 885.102 531.798 0 496.048 836.095 0 657.144 766.817 0 687.392 755.101 0 800.477 716.912 0 942.377 717.93 0 982.749 723.317 0 1077.51 743.348 0 1127.63 770.657 0 1144.92 780.813 0 939.948 707.651 0 939.616 711.212 0 939.253 715.003 0 939.994 717.146 0 1109.59 760.061 0 951.423 707.734 0 944.083 707.423 0 965.777 708.344 0 974.515 643.738 0 961.625 627.297 0 707.781 732.131 0 735.915 720.471 0 817.053 701.958 0 1047.46 722.326 0 1054.25 722.635 0 1061.38 722.96 0 1105.59 743.712 0 1136.99 767.054 0 1009 713.695 0 1047.76 715.736 0 1047.91 712.436 0 1054.56 716.045 0 1076.58 717.195 0 1128.74 756.807 0</DataArray>
</Points>
<Verts>
 <DataArray type="Int64" Name="connectivity" format="ascii">0 1 2 3 4 5 6 7 8 9 10 11 12 13 14 15 16 17 18 19 20 21 22 23 24 25 26 27 28 29 30 31 32 33 34 35 36 37 38 39 40 41 42 43 44 45 46 47 48 49 50 51 52 53 54 55 56 57 58 59 60 61 62 63 64 65 66 67 68 69 70 71 72 73 74 75 76 77 78 79 80 81 82 83 84 85 86 87 88 89 90 91 92 93 94 95 96 97 98 99 100 101</DataArray>
 <DataArray type="Int64" Name="offsets" format="ascii">102</DataArray>
</Verts>
<Lines>
 <DataArray type="Int64" Name="connectivity" format="ascii"/>
 <DataArray type="Int64" Name="offsets" format="ascii"/>
</Lines>
<Stripes>
 <DataArray type="Int64" Name="connectivity" format="ascii"/>
 <DataArray type="Int64" Name="offsets" format="ascii"/>
</Stripes>
<Polys>
 <DataArray type="Int64" Name="connectivity" format="ascii"/>
 <DataArray type="Int64" Name="offsets" format="ascii"/>
</Polys>
</Piece>
</PolyData>
</VTKFile>