<?xml version="1.0" encoding="UTF-8" ?>
<VTKFile type="PolyData" version="0.1" order="LittleEndian">
<PolyData>
 <Piece NumberOfPoints="102" NumberOfVerts="1" NumberOfLines="0" NumberOfStrips="0" NumberOfPolys="0">
<PointData>
 <DataArray type="Float64" Name="speed" format="ascii">12.7662 12.6166 13.6212 2.22706e-06 0 0 0 12.5738 2.56261e-16 12.5298 12.4767 0 0 13.5884 12.7152 1.59276e-16 13.2667 12.9288 0 6.36249e-15 13.2892 2.18313e-15 0 0 1.07433e-15 3.7435e-10 9.40871e-16 8.30334e-16 2.54719e-15 1.617e-12 2.38618e-08 1.06632e-05 7.71349e-14 1.18861e-05 1.25599e-11 0.000317678 0.000665754 5.29223e-08 0.00387668 0.00142004 1.3855 12.7481 12.7426 12.5175 13.8921 13.0908 13.3121 12.6173 12.6346 13.6319 12.4949 12.9376 11.7831 2.60614 1.14828e-15 13.1426 13.2534 5.38309 10.1112 5.51963 3.91724 1.64962 1.56481e-12 0.0354803 13.6369 4.51119 3.36044 0.174637 0.148245 13.503 13.8198 12.8086 13.7392 1.33844 13.7645 8.33328 4.42226 0 0.898461 0.513789 0.264182 0.0210894 7.05351 9.78294 3.54103 12.1205 7.67125e-16 12.7955 13.1136 12.8656 12.837 5.57608e-06 0.000246851 1.78874 8.61789 0 0 2.25252e-07 1.44245e-05 0.193451 13.6566 4.44199</DataArray>
</PointData>
<CellData/>
<Points>
 <DataArray type="Float64" Name="Points" NumberOfComponents="3" format="ascii">882.6 604.669 0 826.723 689.858 0 590.918 772.445 0 973.271 656.776 0 932.722 679.25 0 926.487 681.967 0 920.412 684.747 0 1535.45 1019.14 0 914.506 687.641 0 1550.82 1022.94 0 1525.49 1010.62 0 908.226 689.612 0 921.526 687.859 0 1480.03 987.119 0 1420.59 949.555 0 901.749 690.696 0 1510.22 1006.87 0 1481.45 991.703 0 934.042 682.28 0 908.896 692.846 0 1452.87 970.498 0 895.183 690.405 0 935.362 685.3 0 927.715 685.036 0 888.384 690.199 0 894.983 693.702 0 915.411 690.834 0 881.585 689.993 0 874.786 689.788 0 901.991 693.99 0 888.184 693.496 0 881.385 693.29 0 867.987 689.582 0 874.586 693.085 0 861.465 690.306 0 867.787 692.879 0 861.298 693.683 0 855.398 692.59 0 855.225 695.879 0 848.599 692.43 0 848.29 695.718 0 1422.82 947.116 0 822.417 695.268 0 790.439 693.946 0 755.7 703.205 0 724.426 714.16 0 679.014 733.664 0 642.122 749.387 0 612.355 766.17 0 552.949 789.083 0 527.228 803.302 0 503.625 809.743 0 472.096 826.741 0 434.727 839.058 0 971.406 654.043 0 890.076 631.18 0 696.015 718.466 0 456.455 824.073 0 1095.2 710.035 0 1068.14 688.385 0 1053.04 684.303 0 1044.54 672.446 0 937.093 670.973 0 935.013 670.49 0 646.578 739.853 0 440.866 831.115 0 1048.86 679.356 0 1040.42 670.661 0 884.636 531.11 0 507.692 831.026 0 669.218 762.14 0 700.179 750.148 0 813.721 716.661 0 942.725 717.976 0 995.583 725.029 0 1086.12 746.276 0 1131.92 773.175 0 1145.51 781.159 0 939.822 709.013 0 939.499 712.43 0 939.263 715.259 0 940.191 717.291 0 1116.23 763.96 0 956.911 707.967 0 944.419 707.441 0 975.333 708.749 0 974.515 643.738 0 953.174 620.646 0 719.472 727.084 0 748.983 715.978 0 830.175 701.897 0 1047.46 722.326 0 1054.25 722.635 0 1061.72 722.975 0 1114.23 750.131 0 1138.63 768.275 0 1009 713.695 0 1047.76 715.736 0 1047.91 712.436 0 1054.58 716.046 0 1087.71 725.754 0 1134.06 760.761 0</DataArray>
</Points>
<Verts>
 <DataArray type="Int64" Name="connectivity" format="ascii">0 1 2 3 4 5 6 7 8 9 10 11 12 13 14 15 16 17 18 19 20 21 22 23 24 25 26 27 28 29 30 31 32 33 34 35 36 37 38 39 40 41 42 43 44 45 46 47 48 49 50 51 52 53 54 55 56 57 58 59 60 61 62 63 64 65 66 67 68 69 70 71 72 73 74 75 76 77 78 79 80 81 82 83 84 85 86 87 88 89 90 91 92 93 94 95 96 97 98 99 100 101</DataArray>
 <DataArray type="Int64" Name="offsets" format="ascii">102</DataArray>
</Verts>
<Lines>
 <DataArray type="Int64" Name="connectivity" format="ascii"/>
 <DataArray type="Int64" Name="offsets" format="ascii"/>
</Lines>
<Stripes>
 <DataArray type="Int64" Name="connectivity" format="ascii"/>
 <DataArray type="Int64" Name="offsets" format="ascii"/>
</Stripes>
<Polys>
 <DataArray type="Int64" Name="connectivity" format="ascii"/>
 <DataArray type="Int64" Name="offsets" format="ascii"/>
</Polys>
</Piece>
</PolyData>
</VTKFile>