<?xml version="1.0" encoding="UTF-8" ?>
<VTKFile type="PolyData" version="0.1" order="LittleEndian">
<PolyData>
 <Piece NumberOfPoints="139" NumberOfVerts="1" NumberOfLines="0" NumberOfStrips="0" NumberOfPolys="0">
<PointData>
 <DataArray type="Float64" Name="speed" format="ascii">4.66826e-11 2.45881e-09 1.69416e-06 4.23045e-05 0.00274556 0.0775833 13.1991 4.2644 2.19391 5.3058e-16 8.91672e-15 1.14761 7.02831e-14 2.31858e-12 2.76788e-07 2.43036e-06 7.14726e-11 8.15769e-05 0.000607067 0.0121655 1.98307e-10 0.02751 0.0609589 9.73206e-08 0.0514065 1.70194e-06 0.156864 0.429918 2.3046e-06 0.759007 1.02415 1.13359e-05 1.39978 1.44926 3.55156 0.000173233 1.27595 0.881146 0.000308283 0.000313954 0.654725 0.00560643 0.0259445 0.629288 0.643588 0.45609 0.342717 0.056131 0.127244 0.133434 0.377412 7.07436 13.6755 13.661 13.5782 13.7675 13.2937 10.3072 5.29464 0 13.5766 9.36614e-16 3.32816 1.55281 0 2.29822e-16 3.74553 0 1.31115 12.6021 13.5832 1.53312 0 0 0 0 9.77514e-16 3.10301e-16 2.25907 0 1.68015 1.11159e-15 3.96295e-12 0 1.17112 3.11238e-16 0 1.16022e-15 2.09186 7.86164e-16 12.7648 13.2443 7.02459 10.9564 9.88959 6.40589 2.82506 0.90856 1.37007 12.9396 9.47901 1.9089 4.94364 2.85103 6.72945 13.0783 13.3845 12.6907 12.955 12.8078 11.1318 10.1359 5.00848 0 2.96139 2.085 1.22259 1.57465 9.19869 10.7267 5.02271e-07 0.000109267 1.59039e-08 9.48928 13.0454 9.45479e-12 2.24387e-09 3.23079e-06 0.0378061 13.2674 7.38482 3.49939e-12 1.07348e-09 5.24671e-08 6.46153e-07 0.0512422 1.53702 9.24038 1.49729</DataArray>
</PointData>
<CellData/>
<Points>
 <DataArray type="Float64" Name="Points" NumberOfComponents="3" format="ascii">815.003 692.085 0 794.564 693.543 0 774.515 697.647 0 754.879 703.485 0 729.02 712.371 0 710.088 720.355 0 657.453 742.853 0 439.481 837.035 0 876.78 696.45 0 841.801 692.27 0 835.002 692.109 0 869.035 692.916 0 828.203 691.949 0 821.838 691.976 0 861.373 693.604 0 855.327 695.882 0 808.17 692.217 0 848.526 695.723 0 841.725 695.565 0 834.923 695.407 0 801.367 692.88 0 828.101 695.248 0 821.86 695.277 0 787.793 694.391 0 814.988 695.388 0 781.154 696.019 0 808.154 695.537 0 800.94 696.239 0 767.877 699.275 0 793.25 696.986 0 784.827 698.514 0 761.348 701.277 0 776.874 700.465 0 768.293 702.57 0 759.993 705.226 0 748.414 705.706 0 749.33 708.879 0 741.201 711.673 0 741.95 707.927 0 735.485 710.149 0 733.644 714.27 0 722.675 714.917 0 716.388 717.633 0 726.544 716.839 0 719.671 719.809 0 712.859 722.753 0 705.845 725.784 0 703.725 723.104 0 699.249 728.624 0 697.387 725.834 0 690.983 728.563 0 684.949 734.719 0 660.077 745.319 0 629.876 758.191 0 586.9 774.303 0 537.073 795.65 0 497.05 812.54 0 464.94 829.785 0 442.332 839.402 0 431.109 840.597 0 1501.07 1002.42 0 971.406 654.043 0 937.694 677.153 0 927.911 681.346 0 920.412 684.747 0 914.506 687.641 0 939.347 680.036 0 908.226 689.612 0 936.576 684.775 0 1517.66 1006.82 0 1545.94 1020.57 0 929.213 684.384 0 901.749 690.696 0 921.617 687.816 0 895.183 690.405 0 929.127 688.017 0 888.384 690.199 0 915.503 690.794 0 912.052 695.391 0 922.83 690.889 0 903.83 693.836 0 881.585 689.993 0 895.083 693.705 0 874.786 689.788 0 889.355 696.827 0 867.987 689.582 0 861.465 690.306 0 855.398 692.59 0 883.577 693.357 0 848.599 692.43 0 871.671 597.712 0 752.383 698.79 0 473.944 816.174 0 1122.2 729.757 0 1107.69 719.162 0 1070.59 694.136 0 1050.88 682.304 0 1038.49 669.824 0 938.711 669.223 0 845.666 682.111 0 511.777 799.085 0 1042.66 671.631 0 1061.25 687.091 0 1047.12 674.983 0 909.579 562.024 0 496.165 836.044 0 602.182 789.892 0 717.566 743.413 0 801.642 716.89 0 911.571 717.195 0 1016.72 727.849 0 1064.73 739.591 0 1127.81 770.762 0 1145.51 781.159 0 940.963 696.548 0 940.342 703.377 0 939.903 708.134 0 939.482 712.616 0 1079.98 744.077 0 1367.31 889.939 0 943.69 707.402 0 950.487 707.696 0 974.515 643.738 0 897.892 560.559 0 723.36 725.405 0 1008.68 720.289 0 1047.46 722.326 0 1054.25 722.635 0 1061.05 722.945 0 1075.98 724.689 0 1123.85 757.285 0 1009.07 713.699 0 1047.76 715.736 0 1047.91 712.436 0 1054.55 716.045 0 1054.73 712.746 0 1061.57 716.365 0 1113.55 745.509 0 1137.43 767.381 0</DataArray>
</Points>
<Verts>
 <DataArray type="Int64" Name="connectivity" format="ascii">0 1 2 3 4 5 6 7 8 9 10 11 12 13 14 15 16 17 18 19 20 21 22 23 24 25 26 27 28 29 30 31 32 33 34 35 36 37 38 39 40 41 42 43 44 45 46 47 48 49 50 51 52 53 54 55 56 57 58 59 60 61 62 63 64 65 66 67 68 69 70 71 72 73 74 75 76 77 78 79 80 81 82 83 84 85 86 87 88 89 90 91 92 93 94 95 96 97 98 99 100 101 102 103 104 105 106 107 108 109 110 111 112 113 114 115 116 117 118 119 120 121 122 123 124 125 126 127 128 129 130 131 132 133 134 135 136 137 138</DataArray>
 <DataArray type="Int64" Name="offsets" format="ascii">139</DataArray>
</Verts>
<Lines>
 <DataArray type="Int64" Name="connectivity" format="ascii"/>
 <DataArray type="Int64" Name="offsets" format="ascii"/>
</Lines>
<Stripes>
 <DataArray type="Int64" Name="connectivity" format="ascii"/>
 <DataArray type="Int64" Name="offsets" format="ascii"/>
</Stripes>
<Polys>
 <DataArray type="Int64" Name="connectivity" format="ascii"/>
 <DataArray type="Int64" Name="offsets" format="ascii"/>
</Polys>
</Piece>
</PolyData>
</VTKFile>