<?xml version="1.0" encoding="UTF-8" ?>
<VTKFile type="PolyData" version="0.1" order="LittleEndian">
<PolyData>
 <Piece NumberOfPoints="40" NumberOfVerts="1" NumberOfLines="0" NumberOfStrips="0" NumberOfPolys="0">
<PointData>
 <DataArray type="Float64" Name="speed" format="ascii">12.6532 13.1297 13.2273 13.7746 4.00591 13.1924 13.6423 13.3624 13.2707 13.6632 12.7281 13.7905 9.9399 13.3206 7.93573 13.4683 5.21528 6.32905 13.8786 13.3994 12.4041 7.7378 2.59855 0.577496 0.526987 5.57747 3.02386e-13 11.8191 6.27024e-10 6.41774 4.46597 2.39508 11.738 6.39601 7.94163 5.33216 4.93638 6.91691 9.45525 0.584097</DataArray>
</PointData>
<CellData/>
<Points>
 <DataArray type="Float64" Name="Points" NumberOfComponents="3" format="ascii">784.645 695.163 0 539.055 794.831 0 778.953 699.955 0 739.057 708.921 0 438.088 841.208 0 707.74 724.965 0 670.482 737.301 0 633.763 756.534 0 597.754 769.283 0 556.376 791.235 0 510.434 806.846 0 489.967 819.14 0 457.751 829.262 0 710.271 712.299 0 463.553 820.867 0 643.622 741.132 0 442.792 830.245 0 1050.23 702.567 0 1063.78 687.43 0 863.278 716.47 0 1001.57 725.827 0 1090.65 748.937 0 1134.95 774.953 0 1144.55 780.594 0 939.566 711.733 0 1122.84 767.845 0 974.515 643.738 0 907.923 572.39 0 978.155 638.228 0 1030.47 721.536 0 1044.45 722.186 0 1057.12 722.766 0 1069.53 722.836 0 1126.97 759.605 0 1026.71 714.742 0 1035.11 711.844 0 1043.86 715.556 0 1049.57 712.511 0 1108.9 742.052 0 1138.16 767.926 0</DataArray>
</Points>
<Verts>
 <DataArray type="Int64" Name="connectivity" format="ascii">0 1 2 3 4 5 6 7 8 9 10 11 12 13 14 15 16 17 18 19 20 21 22 23 24 25 26 27 28 29 30 31 32 33 34 35 36 37 38 39</DataArray>
 <DataArray type="Int64" Name="offsets" format="ascii">40</DataArray>
</Verts>
<Lines>
 <DataArray type="Int64" Name="connectivity" format="ascii"/>
 <DataArray type="Int64" Name="offsets" format="ascii"/>
</Lines>
<Stripes>
 <DataArray type="Int64" Name="connectivity" format="ascii"/>
 <DataArray type="Int64" Name="offsets" format="ascii"/>
</Stripes>
<Polys>
 <DataArray type="Int64" Name="connectivity" format="ascii"/>
 <DataArray type="Int64" Name="offsets" format="ascii"/>
</Polys>
</Piece>
</PolyData>
</VTKFile>