<?xml version="1.0" encoding="UTF-8" ?>
<VTKFile type="PolyData" version="0.1" order="LittleEndian">
<PolyData>
 <Piece NumberOfPoints="120" NumberOfVerts="1" NumberOfLines="0" NumberOfStrips="0" NumberOfPolys="0">
<PointData>
 <DataArray type="Float64" Name="speed" format="ascii">0.459544 0.865493 13.1229 13.3654 0.437623 0.158268 0.457886 1.26406 0.832168 0.452986 0.282947 1.78066 0.390809 1.72809 1.16758 3.03358 13.4757 13.2374 12.8436 12.562 12.4778 12.8944 13.8055 12.4226 8.19076 3.25309 12.5624 1.1117e-15 6.644e-14 0 13.8715 0 3.17942e-16 13.7458 0 13.5253 2.1757 1.02754e-15 0 0 0 9.73686e-13 7.16388e-12 0 0 2.02906e-11 4.51711e-09 0 8.02147e-16 1.86676e-07 0 2.80325e-12 6.50107e-14 2.73384e-08 1.17771e-11 1.31857e-10 2.27538e-07 3.80801e-07 2.03713e-06 3.55881e-06 5.25142e-06 1.91534e-05 0.00176531 0.0173839 0.0178328 0.0400308 0.00122185 0.0888902 0.00306393 0.294875 0.00344122 0.0112742 0.0641918 0.262843 0.15012 13.2255 12.9892 9.208 1.82153 1.29334 13.6729 13.5322 5.02371 9.58305 8.469 8.72673 6.83759 6.00652 13.7149 13.6924 13.7099 13.3472 13.7618 9.46985 8.75717 3.48113 0.185841 4.61084 1.10831 1.0646 0.131614 9.47935 0.0113843 1.04003e-05 0.153697 0.189662 1.00375 1.03924e-11 6.40794e-16 6.27879e-08 4.85323e-05 0.413201 10.1929 2.64938 1.2543e-13 8.1324e-05 0.000101824 0.14543 13.6671 8.09267</DataArray>
</PointData>
<CellData/>
<Points>
 <DataArray type="Float64" Name="Points" NumberOfComponents="3" format="ascii">807.709 692.262 0 770.225 698.699 0 691.116 728.506 0 493.486 814.057 0 806.872 695.662 0 800.408 692.974 0 793.374 693.659 0 799.076 696.42 0 785.691 694.906 0 778.083 696.772 0 790.896 697.215 0 783.934 698.733 0 762.303 700.951 0 775.516 700.798 0 767.113 702.86 0 755.092 706.899 0 738.161 709.229 0 701.028 727.866 0 665.113 743.173 0 620.276 758.866 0 593.626 771.192 0 565.665 783.754 0 529.544 802.34 0 486.461 820.631 0 456.69 829.713 0 435.428 838.76 0 1511.41 1003.78 0 973.271 656.776 0 965.777 658.007 0 932.722 679.25 0 1491.84 997.53 0 920.412 684.747 0 914.506 687.641 0 1533.35 1014.45 0 915.503 690.794 0 1470.49 981.772 0 936.043 681.425 0 971.406 654.043 0 926.487 681.967 0 908.226 689.612 0 935.362 685.3 0 901.749 690.696 0 895.183 690.405 0 927.807 684.997 0 921.617 687.816 0 888.384 690.199 0 881.585 689.993 0 929.127 688.017 0 908.995 692.821 0 874.786 689.788 0 922.83 690.889 0 902.095 693.986 0 916.508 693.943 0 881.485 693.293 0 895.083 693.705 0 888.284 693.499 0 867.987 689.582 0 874.686 693.088 0 867.887 692.882 0 861.465 690.306 0 861.373 693.604 0 855.398 692.59 0 855.326 695.882 0 848.522 695.723 0 841.693 695.564 0 834.847 695.405 0 848.599 692.43 0 827.959 695.245 0 841.796 692.27 0 821.507 695.283 0 834.991 692.109 0 828.181 691.949 0 821.794 691.977 0 814.387 695.397 0 814.884 692.087 0 867.414 589.97 0 747.575 700.113 0 483.806 811.719 0 938.749 669.178 0 936.595 670.858 0 908.893 662.245 0 714.086 710.648 0 443.76 829.807 0 1107.64 719.125 0 1092.18 707.831 0 984.521 723.553 0 1076.5 698.564 0 1069.08 690.243 0 473.146 846.065 0 619.894 782.181 0 672.966 760.689 0 825.609 716.436 0 902.959 717.066 0 1000.01 725.62 0 1072.6 741.906 0 1132.31 773.401 0 1145.35 781.065 0 940.903 697.213 0 939.811 709.141 0 939.433 713.127 0 939.401 716.299 0 1086.56 746.534 0 950.491 707.697 0 943.69 707.402 0 957.318 707.984 0 964.364 708.284 0 977.81 638 0 1015.47 720.687 0 1008.68 720.289 0 1047.46 722.326 0 1054.25 722.635 0 1061.45 722.963 0 1105.33 743.516 0 1135.2 765.724 0 1047.76 715.736 0 1047.91 712.436 0 1054.55 716.045 0 1054.73 712.746 0 1080.86 720.111 0 1125.62 754.485 0</DataArray>
</Points>
<Verts>
 <DataArray type="Int64" Name="connectivity" format="ascii">0 1 2 3 4 5 6 7 8 9 10 11 12 13 14 15 16 17 18 19 20 21 22 23 24 25 26 27 28 29 30 31 32 33 34 35 36 37 38 39 40 41 42 43 44 45 46 47 48 49 50 51 52 53 54 55 56 57 58 59 60 61 62 63 64 65 66 67 68 69 70 71 72 73 74 75 76 77 78 79 80 81 82 83 84 85 86 87 88 89 90 91 92 93 94 95 96 97 98 99 100 101 102 103 104 105 106 107 108 109 110 111 112 113 114 115 116 117 118 119</DataArray>
 <DataArray type="Int64" Name="offsets" format="ascii">120</DataArray>
</Verts>
<Lines>
 <DataArray type="Int64" Name="connectivity" format="ascii"/>
 <DataArray type="Int64" Name="offsets" format="ascii"/>
</Lines>
<Stripes>
 <DataArray type="Int64" Name="connectivity" format="ascii"/>
 <DataArray type="Int64" Name="offsets" format="ascii"/>
</Stripes>
<Polys>
 <DataArray type="Int64" Name="connectivity" format="ascii"/>
 <DataArray type="Int64" Name="offsets" format="ascii"/>
</Polys>
</Piece>
</PolyData>
</VTKFile>