<?xml version="1.0" encoding="UTF-8" ?>
<VTKFile type="PolyData" version="0.1" order="LittleEndian">
<PolyData>
 <Piece NumberOfPoints="196" NumberOfVerts="1" NumberOfLines="0" NumberOfStrips="0" NumberOfPolys="0">
<PointData>
 <DataArray type="Float64" Name="speed" format="ascii">13.2019 7.70094 0.00255197 0.333551 0.482232 0.963785 1.93474 2.49244 5.30264 0.305589 0.0965429 0.00354065 2.43428e-05 1.06575e-06 5.53538e-06 0.000161109 9.57256 13.4686 13.403 13.4602 12.7098 13.8637 12.8856 0 2.53778e-16 0 1.20767e-15 2.11893e-14 8.76965e-12 2.83955e-11 6.26733e-09 1.28993e-08 12.9453 2.06435e-08 13.2398 12.7649 12.7164 3.92181e-07 13.8547 12.57 5.66823e-06 12.7092 12.5368 12.6762 1.44702e-05 6.82334e-05 13.6122 13.7463 12.6849 0.000160053 13.3418 0.000521532 0.00254118 0.0001438 0 0.000105294 0.021744 0.0365261 0.905477 0.130335 0.887214 0.301837 9.37187 2.41893 0.306749 1.1805 2.98552 4.42682 0 0.584418 3.55931 2.39974 1.01066 0.858419 1.92212 0.286376 0.00252493 1.19897 0.00625868 0.0146504 0.0474216 1.79995 0.0567227 0.0288794 1.54707 0.333146 6.92196 0.325981 7.22903 0.325707 0.863684 0.988166 2.27204 4.43811 5.51893 2.22025 7.60242 0.46316 7.40668 6.55278 0.515361 3.31366 4.28479 0.041376 1.01135 1.27821 0.0435143 1.95834 0.0161958 0.822723 1.61854 0.00328583 1.5039 0.472465 1.60564 0.00124029 5.53356e-05 0.596913 1.26038 1.80491 5.62502e-06 0.66172 4.24567e-07 0.716622 0.861173 0.695353 3.18715e-07 0.15202 3.16316e-06 0.481569 0.376923 4.4235e-06 0.13664 0.324878 6.97293e-05 0.323233 0.427263 0.265209 8.58165e-05 0.929048 0.650546 0.0114958 10.725 4.83176 0 5.22811 13.6 7.47443 1.99922e-15 2.26033e-15 5.79884e-13 13.46 1.60347e-06 12.8971 2.28867 1.58581e-06 1.48631 13.4425 13.7833 11.7043 7.77354 2.83463 13.799 13.0664 13.4024 6.43915 4.81535 1.29464 0 7.45994e-11 0.00118002 5.35302 7.74209 0.000206643 0.00383604 12.9411 12.9758 13.496 13.3927 13.543 13.7696 13.8834 8.63099 6.02428 12.653 1.45298 0.55583 5.10338e-05 13.8086 11.6708 13.6159 12.5254 7.20025 13.2643 9.0462 5.11434</DataArray>
</PointData>
<CellData/>
<Points>
 <DataArray type="Float64" Name="Points" NumberOfComponents="3" format="ascii">876.415 591.656 0 916.6 645.39 0 821.83 691.976 0 800.758 692.94 0 770.806 698.556 0 748.777 705.581 0 724.866 713.97 0 699.007 725.144 0 661.888 740.963 0 623.625 757.324 0 604.164 766.318 0 585.481 774.96 0 560.632 785.905 0 541.781 793.703 0 522.926 801.53 0 497.894 812.181 0 475.324 821.784 0 1406.82 937.772 0 1385.86 919.566 0 1348.55 892.102 0 1301.59 856.484 0 1200.08 797.228 0 1175.01 778.737 0 932.722 679.25 0 926.487 681.967 0 920.412 684.747 0 914.506 687.641 0 908.226 689.612 0 901.749 690.696 0 895.183 690.405 0 888.384 690.199 0 881.585 689.993 0 1425.63 949.478 0 874.786 689.788 0 1424.92 953.179 0 1366.19 904.954 0 1254.35 825.17 0 867.987 689.582 0 1198.37 792.406 0 1381.68 912.274 0 861.465 690.306 0 1399.7 927.189 0 1298.86 858.625 0 1273.17 837.345 0 855.398 692.59 0 848.599 692.43 0 1319.74 868.705 0 1361.59 897.522 0 1230.09 810.968 0 841.8 692.27 0 1250.86 826.948 0 835.001 692.109 0 828.199 691.949 0 935.362 685.3 0 934.042 682.28 0 927.807 684.997 0 921.615 687.817 0 814.947 692.086 0 915.479 690.804 0 808.051 692.229 0 907.165 693.254 0 793.408 693.656 0 926.134 689.325 0 899.008 693.884 0 786.268 694.765 0 778.867 696.579 0 893.642 696.955 0 883.786 693.363 0 882.917 696.634 0 763.582 700.515 0 871.866 693.002 0 861.225 693.76 0 852.113 695.807 0 740.837 708.31 0 843.99 695.618 0 835.209 695.414 0 828.121 695.249 0 733.135 710.956 0 821.911 695.276 0 815.119 695.386 0 808.319 695.521 0 716.647 717.521 0 801.502 696.184 0 794.68 696.847 0 707.388 721.522 0 787.753 697.796 0 689.756 729.086 0 780.788 699.504 0 675.894 734.994 0 773.531 701.285 0 765.595 703.315 0 757.858 705.954 0 750.264 708.558 0 650.604 745.772 0 740.613 711.875 0 639.041 750.701 0 728.291 716.11 0 630.396 754.385 0 713.929 722.291 0 699.871 728.359 0 617.136 760.319 0 674.993 738.962 0 685.38 734.535 0 610.442 763.415 0 665.438 743.034 0 657.538 746.401 0 597.897 769.217 0 649.808 749.696 0 591.674 772.095 0 641.419 753.271 0 634.104 756.389 0 579.317 777.707 0 626.131 759.829 0 618.031 763.544 0 610.65 766.959 0 573.096 780.463 0 566.877 783.217 0 602.624 770.672 0 595.491 773.972 0 587.9 777.484 0 554.348 788.505 0 579.076 781.418 0 548.064 791.104 0 571.371 784.831 0 563.931 788.108 0 556.792 791.063 0 535.497 796.302 0 549.84 793.94 0 529.213 798.901 0 543.178 796.697 0 536.418 799.495 0 516.668 804.193 0 529.732 802.262 0 523.184 805.009 0 504.152 809.518 0 516.356 807.914 0 509.7 810.745 0 502.724 813.713 0 491.636 814.844 0 496.182 816.496 0 489.037 819.535 0 485.364 817.512 0 466.208 829.246 0 442.39 839.378 0 431.109 840.597 0 896.892 641.834 0 690.565 720.824 0 470.536 817.713 0 1047.56 676.366 0 1046.92 674.363 0 1045.66 672.931 0 998.821 642.922 0 937.093 670.973 0 745.222 700.761 0 435.114 833.713 0 1043.73 672.095 0 885.949 533.049 0 813.175 716.671 0 906.996 717.126 0 1027.89 729.34 0 1107.09 758.591 0 1137.08 776.204 0 544.525 814.992 0 629.035 778.202 0 734.753 736.756 0 885.605 623.05 0 892.171 634.989 0 908.599 656.781 0 939.604 711.337 0 939.404 713.429 0 939.277 715.523 0 1119.84 766.081 0 1121.15 733.169 0 1006.94 704.869 0 1010.1 698.406 0 908.769 573.387 0 1108.54 737.675 0 759.63 712.324 0 782.002 706.004 0 873.538 702.952 0 935.579 706.983 0 965.971 708.352 0 1021.86 721.061 0 1038.6 721.914 0 1075.94 724.666 0 1137.46 767.408 0 756.274 703.009 0 510.41 806.856 0 847.282 702.273 0 890.088 620.42 0 901.768 624.728 0 944.751 674.336 0 997.07 711.677 0 1043.81 715.554 0 1117.62 748.538 0 1131.5 758.862 0</DataArray>
</Points>
<Verts>
 <DataArray type="Int64" Name="connectivity" format="ascii">0 1 2 3 4 5 6 7 8 9 10 11 12 13 14 15 16 17 18 19 20 21 22 23 24 25 26 27 28 29 30 31 32 33 34 35 36 37 38 39 40 41 42 43 44 45 46 47 48 49 50 51 52 53 54 55 56 57 58 59 60 61 62 63 64 65 66 67 68 69 70 71 72 73 74 75 76 77 78 79 80 81 82 83 84 85 86 87 88 89 90 91 92 93 94 95 96 97 98 99 100 101 102 103 104 105 106 107 108 109 110 111 112 113 114 115 116 117 118 119 120 121 122 123 124 125 126 127 128 129 130 131 132 133 134 135 136 137 138 139 140 141 142 143 144 145 146 147 148 149 150 151 152 153 154 155 156 157 158 159 160 161 162 163 164 165 166 167 168 169 170 171 172 173 174 175 176 177 178 179 180 181 182 183 184 185 186 187 188 189 190 191 192 193 194 195</DataArray>
 <DataArray type="Int64" Name="offsets" format="ascii">196</DataArray>
</Verts>
<Lines>
 <DataArray type="Int64" Name="connectivity" format="ascii"/>
 <DataArray type="Int64" Name="offsets" format="ascii"/>
</Lines>
<Stripes>
 <DataArray type="Int64" Name="connectivity" format="ascii"/>
 <DataArray type="Int64" Name="offsets" format="ascii"/>
</Stripes>
<Polys>
 <DataArray type="Int64" Name="connectivity" format="ascii"/>
 <DataArray type="Int64" Name="offsets" format="ascii"/>
</Polys>
</Piece>
</PolyData>
</VTKFile>