<?xml version="1.0" encoding="UTF-8" ?>
<VTKFile type="PolyData" version="0.1" order="LittleEndian">
<PolyData>
 <Piece NumberOfPoints="199" NumberOfVerts="1" NumberOfLines="0" NumberOfStrips="0" NumberOfPolys="0">
<PointData>
 <DataArray type="Float64" Name="speed" format="ascii">0.0002395 13.2326 1.90227 3.06819 3.13644 0.497005 0.0473369 0.000813326 2.04494e-06 3.16205e-08 1.51831e-06 1.46199e-05 0.000272714 0.00125941 0.00698786 3.5379 13.6351 12.7363 13.882 13.3299 6.99714 4.70947 1.84421e-12 5.02771e-10 2.39375e-08 3.78345e-06 0.000445418 0.00202919 0.00795775 0.00607951 0.0252873 13.4811 0.450107 12.5514 13.4502 10.5081 2.73068 9.53446 13.7714 0.324945 12.9857 12.7248 12.6691 0.20098 1.03456 12.4664 12.8954 7.72194 1.34777 10.232 1.58292 2.802 1.24719e-12 1.11101e-14 7.35273e-09 1.00576e-06 5.2928 3.08748e-06 5.29348 1.35864e-05 3.75374 0.000308205 0.000526534 5.51219 3.74926 0.00676621 0.00883671 0.0423372 1.5 0.213891 1.17043 1.4967 0.0848324 8.90059 7.32529 6.14713 0.0697777 4.27479 1.63052 1.65237 0.0202207 1.07565 0.367001 0.00529641 1.29014 0.000222332 1.30367 4.63748e-05 0.686541 1.64186 1.24419 1.40907 8.19672e-07 0.524618 3.10788e-08 1.52007 7.90836e-09 0.959131 0.676925 1.15947e-07 1.44552 1.63702 6.82789e-07 0.303171 0.825663 1.99397e-06 0.47129 6.60163e-06 0.214075 0.323289 1.30049e-05 0.0863456 0.242862 0.354708 4.95565e-05 5.11084e-05 0.361032 0.683016 0.625071 0.000268973 0.229813 0.00155092 0.42797 0.217066 0.734797 0.00438211 0.746712 0.0104725 0.31579 0.801337 0.0486246 0.353176 0.608747 0.0858449 7.08349 11.1147 7.54186 2.48148 13.0183 8.44843 4.47288e-10 8.70463e-09 1.47328e-07 4.28298 12.9953 11.2689 12.8503 13.2151 11.5788 6.16753 1.23055 13.4815 13.7994 13.0618 12.888 13.7223 13.6725 5.31456 5.12231 3.24546 2.87052 1.67122e-12 3.55699e-05 11.0425 12.73 5.08487e-16 6.76208e-16 4.33352 9.8499e-16 13.5963 13.5324 13.5043 12.8973 13.0788 9.6683 8.46662 1.31613 2.77714 12.8591 3.74884 0.432809 0.0417069 13.0767 12.7058 12.8916 13.4256 12.4192 13.0556 11.3169 12.6185 11.4655 13.6176 11.0645 12.8735 2.57806 8.5458 13.0269 13.3537 8.00993</DataArray>
</PointData>
<CellData/>
<Points>
 <DataArray type="Float64" Name="Points" NumberOfComponents="3" format="ascii">920.689 655.369 0 913.055 684.814 0 809.55 692.172 0 773.175 697.975 0 729.197 712.31 0 704.638 722.71 0 685.158 731.046 0 666.314 739.077 0 647.542 747.077 0 622.527 757.825 0 603.999 766.395 0 585.471 774.964 0 560.632 785.905 0 541.777 793.704 0 522.891 801.546 0 497.223 812.467 0 1214.65 805.755 0 1189.75 791.187 0 1148.32 766.941 0 1105.8 727.849 0 1014.6 667.026 0 1001.91 658.203 0 932.722 679.25 0 926.487 681.967 0 920.412 684.747 0 914.506 687.641 0 908.226 689.612 0 901.747 690.696 0 895.177 690.405 0 888.369 690.199 0 881.549 689.992 0 1231.25 811.651 0 874.505 689.779 0 1232.76 816.354 0 1167.29 778.044 0 1065.35 698.063 0 867.213 689.558 0 1032.15 672.895 0 1182.15 782.912 0 858.57 692.665 0 1205.08 796.336 0 1103.02 729.83 0 1073.67 710.452 0 851.244 692.492 0 844.104 692.324 0 1120.09 742.146 0 1162.54 771.437 0 1042.65 682.119 0 836.155 692.137 0 1058.26 695.184 0 827.701 691.94 0 819.35 692.016 0 927.807 684.997 0 934.042 682.28 0 921.617 687.816 0 915.503 690.794 0 799.595 693.053 0 908.995 692.821 0 786.078 694.811 0 902.095 693.986 0 763.479 700.55 0 895.083 693.705 0 888.283 693.499 0 753.009 704.127 0 740.377 708.468 0 881.481 693.293 0 874.666 693.087 0 867.856 692.881 0 719.101 716.461 0 861.104 693.887 0 853.968 695.85 0 844.868 695.638 0 697.836 725.643 0 832.956 695.361 0 813.97 695.404 0 798.418 696.484 0 691.481 728.351 0 783.924 698.735 0 772.087 701.639 0 763.717 703.956 0 678.855 733.732 0 754.703 707.033 0 747.003 709.679 0 672.577 736.408 0 740.015 712.081 0 660.056 741.744 0 731.855 714.885 0 653.799 744.411 0 723.531 718.141 0 716.164 721.325 0 707.305 725.153 0 699.923 728.337 0 641.285 749.744 0 692.192 731.632 0 635.029 752.411 0 684.419 734.945 0 628.772 755.077 0 676.258 738.423 0 668.908 741.556 0 616.351 760.682 0 652.003 748.76 0 661.575 744.681 0 610.175 763.538 0 644.168 752.099 0 637.624 754.888 0 597.823 769.251 0 630.359 757.985 0 591.647 772.108 0 623.616 760.96 0 617.166 763.944 0 579.312 777.709 0 610.671 766.949 0 604.327 769.884 0 597.914 772.851 0 573.095 780.463 0 566.877 783.217 0 591.227 775.944 0 584.567 778.985 0 577.697 782.029 0 554.347 788.505 0 570.783 785.092 0 548.063 791.104 0 564.145 788.02 0 557.439 790.795 0 550.782 793.55 0 535.488 796.306 0 543.495 796.566 0 529.192 798.91 0 536.235 799.57 0 529.248 802.462 0 516.612 804.217 0 522.079 805.479 0 515.424 808.31 0 503.982 809.591 0 508.056 811.445 0 476.037 825.065 0 450.675 835.853 0 433.392 839.626 0 762.401 696.032 0 484.807 811.267 0 1047.56 676.366 0 1046.92 674.363 0 1045.66 672.931 0 875.931 512.905 0 867.879 682.286 0 528.837 791.379 0 449.557 856.334 0 992.153 636.918 0 1049.41 735.086 0 1115.6 763.589 0 1144.34 780.472 0 468.35 848.153 0 583.881 797.859 0 651.143 769.141 0 764.256 725.328 0 855.2 716.349 0 969.012 721.484 0 918.604 665.447 0 927.59 669.989 0 936.792 674.938 0 937.846 680.675 0 939.604 711.337 0 939.404 713.429 0 1072.7 741.934 0 722.332 725.849 0 978.155 638.228 0 974.515 643.738 0 968.601 639.827 0 976.335 640.978 0 756.888 713.26 0 813.881 702.01 0 836.904 702.045 0 897.255 703.785 0 925.079 706.436 0 992.614 714.518 0 1009.76 720.352 0 1054.81 722.661 0 1064.27 723.092 0 1093.73 739.276 0 1134.26 765.022 0 711.342 719.813 0 510.31 806.899 0 885.022 609.762 0 885.698 603.502 0 907.47 634.472 0 895.005 623.085 0 925.976 655.173 0 891.167 607.323 0 937.471 661.597 0 913.295 631.146 0 965.918 690.312 0 914.37 637.577 0 950.325 676.13 0 926.358 646.498 0 1045.4 722.23 0 993.095 709.894 0 1040.76 715.413 0 1077.95 718.105 0 1124.99 754.019 0</DataArray>
</Points>
<Verts>
 <DataArray type="Int64" Name="connectivity" format="ascii">0 1 2 3 4 5 6 7 8 9 10 11 12 13 14 15 16 17 18 19 20 21 22 23 24 25 26 27 28 29 30 31 32 33 34 35 36 37 38 39 40 41 42 43 44 45 46 47 48 49 50 51 52 53 54 55 56 57 58 59 60 61 62 63 64 65 66 67 68 69 70 71 72 73 74 75 76 77 78 79 80 81 82 83 84 85 86 87 88 89 90 91 92 93 94 95 96 97 98 99 100 101 102 103 104 105 106 107 108 109 110 111 112 113 114 115 116 117 118 119 120 121 122 123 124 125 126 127 128 129 130 131 132 133 134 135 136 137 138 139 140 141 142 143 144 145 146 147 148 149 150 151 152 153 154 155 156 157 158 159 160 161 162 163 164 165 166 167 168 169 170 171 172 173 174 175 176 177 178 179 180 181 182 183 184 185 186 187 188 189 190 191 192 193 194 195 196 197 198</DataArray>
 <DataArray type="Int64" Name="offsets" format="ascii">199</DataArray>
</Verts>
<Lines>
 <DataArray type="Int64" Name="connectivity" format="ascii"/>
 <DataArray type="Int64" Name="offsets" format="ascii"/>
</Lines>
<Stripes>
 <DataArray type="Int64" Name="connectivity" format="ascii"/>
 <DataArray type="Int64" Name="offsets" format="ascii"/>
</Stripes>
<Polys>
 <DataArray type="Int64" Name="connectivity" format="ascii"/>
 <DataArray type="Int64" Name="offsets" format="ascii"/>
</Polys>
</Piece>
</PolyData>
</VTKFile>