<?xml version="1.0" encoding="UTF-8" ?>
<VTKFile type="PolyData" version="0.1" order="LittleEndian">
<PolyData>
 <Piece NumberOfPoints="171" NumberOfVerts="1" NumberOfLines="0" NumberOfStrips="0" NumberOfPolys="0">
<PointData>
 <DataArray type="Float64" Name="speed" format="ascii">0.0813601 4.05902e-15 2.54906e-14 1.27778e-11 5.74182e-09 6.03142e-07 2.74891e-05 0.00123438 0.00843183 0.0625844 0.592177 0.453622 11.1945 0.798993 3.3624 2.1537 4.26441 3.17147 0.563846 1.098 1.00612 1.28983 0.791776 0.0447854 1.2577 1.42502 10.6767 1.92639 0.608505 0.11953 12.6553 0.50647 0.248686 7.51025 6.23513 4.21515 2.83607 0.000462222 10.8277 4.43556e-15 4.17507e-15 1.23059 0.792198 1.59208 3.53445e-15 0.487264 4.65059e-15 0.464045 0.641367 1.29748 3.80226e-13 1.23942 0.660963 1.52139e-12 1.40243 0.653471 1.0539 1.64438e-10 5.51003e-10 0.674735 0.989809 0.739811 6.96701e-08 0.238025 1.15019e-07 5.22225e-07 0.502792 0.347976 0.114781 0.166918 2.72334e-06 0.137678 2.49821e-06 0.223295 6.31263e-05 0.330634 0.849213 0.000240533 0.00117733 0.285646 0.845382 1.04166 0.00225602 0.852628 0.41346 0.638529 0.00827795 0.500293 0.807866 1.85858 0.00995265 0.42968 0.390625 0.281133 0.0483221 0.0792064 0.0659079 0.540232 0.372729 0.461036 0.106145 0.472627 0.331458 0.238532 0.595523 1.52658 0.691741 1.01376 11.8812 12.4168 13.5398 9.13069 4.06274 0 0.00153938 4.83537 0 12.7351 13.2173 6.16718 12.9684 10.3558 2.20041 11.8234 13.0929 3.69287 13.8462 13.3805 12.0988 11.3957 13.2965 13.8345 10.8391 11.508 12.7727 12.6817 6.7793 4.37728 2.04161e-09 9.48735e-06 0.000241746 0.0179986 0 4.9781 13.81 8.88326 9.6648e-16 1.67144 0 8.1588 4.51238 3.47736 1.10129 1.07028 1.72122 7.09273 5.72235 4.19105 0.00542498 6.20832e-05 6.63593 7.83861 3.99996 4.85498 2.44825 1.58474 0.510854 3.66666 13.6438 9.41374 1.99198</DataArray>
</PointData>
<CellData/>
<Points>
 <DataArray type="Float64" Name="Points" NumberOfComponents="3" format="ascii">821.921 691.975 0 794.564 693.543 0 774.515 697.647 0 754.879 703.485 0 735.486 710.148 0 710.133 720.336 0 691.34 728.411 0 666.309 739.079 0 647.524 747.085 0 628.703 755.106 0 609.454 763.872 0 588.759 773.444 0 467.646 825.051 0 956.955 665.384 0 951.097 670.055 0 931.554 679.759 0 920.144 684.875 0 910.193 689.064 0 899.968 690.657 0 892.604 690.327 0 884.092 690.069 0 875.881 689.821 0 867.176 689.557 0 1042.84 682.219 0 1036.12 678.701 0 859.229 692.649 0 998.731 656.035 0 941.758 675.419 0 850.346 692.471 0 842.861 692.295 0 1016.27 668.133 0 835.893 692.13 0 828.563 691.958 0 937.361 680.871 0 976.547 651.419 0 922.707 687.301 0 912.5 691.818 0 815.004 692.085 0 970.911 658.121 0 808.17 692.217 0 801.367 692.88 0 902.653 693.966 0 893.205 693.648 0 885.577 693.417 0 787.793 694.391 0 876.878 693.154 0 781.154 696.019 0 869.133 692.919 0 861.934 693.012 0 854.942 695.873 0 767.877 699.275 0 846.826 695.684 0 838.31 695.486 0 761.348 701.277 0 829.573 695.283 0 821.734 695.279 0 813.972 695.404 0 748.414 705.706 0 741.95 707.927 0 806.056 695.741 0 798.402 696.485 0 790.476 697.256 0 729.022 712.37 0 783.083 698.941 0 722.682 714.913 0 716.408 717.625 0 769.004 702.396 0 775.949 700.692 0 761.976 704.549 0 755.4 706.793 0 703.858 723.047 0 748.807 709.059 0 697.597 725.745 0 741.981 711.405 0 685.083 731.078 0 735.021 713.797 0 727.99 716.214 0 678.826 733.744 0 672.568 736.412 0 720.69 719.369 0 713.999 722.261 0 706.765 725.387 0 660.049 741.747 0 699.503 728.516 0 692.335 731.571 0 685.407 734.524 0 641.258 749.756 0 678.466 737.482 0 671.73 740.353 0 664.726 743.338 0 634.988 752.428 0 656.639 746.784 0 649.914 749.651 0 643.104 752.553 0 622.371 757.898 0 636.531 755.354 0 630.174 758.064 0 616.134 760.782 0 623.816 760.867 0 602.655 767.016 0 617.296 763.884 0 595.464 770.342 0 611.028 766.784 0 604.273 769.909 0 597.321 773.125 0 590.28 776.383 0 581.983 776.527 0 582.1 780.078 0 568.521 782.489 0 535.873 796.147 0 503.242 809.906 0 461.63 831.193 0 440.191 840.313 0 431.109 840.597 0 1044.4 679.305 0 1027.68 674.287 0 962.597 660.666 0 875.618 604.889 0 695.472 718.701 0 464.386 820.491 0 1191.41 778.478 0 1142 746.125 0 992.902 637.592 0 971.77 650.574 0 662.53 732.952 0 437.549 832.613 0 1035.07 668.342 0 1208.47 789.289 0 1159.28 758.115 0 951.881 612.751 0 497.731 835.362 0 792.946 717.054 0 818.84 716.564 0 836.952 716.221 0 909.413 717.162 0 999.459 725.546 0 1106.86 758.456 0 1132.41 773.463 0 940.45 689.048 0 941.122 691.037 0 941.276 693.089 0 941.085 695.208 0 939.7 710.34 0 1123.69 768.34 0 1549.19 1016.18 0 915.908 705.958 0 974.515 643.738 0 968.417 643.659 0 1036.02 721.794 0 1025.15 721.254 0 1044.75 722.2 0 1056.35 722.731 0 1066.79 723.028 0 1073.77 723.309 0 1080.27 728.178 0 1123.43 756.976 0 936.874 707.051 0 950.293 707.689 0 653.79 744.415 0 955.063 684.553 0 1031.88 715.002 0 1027.95 711.504 0 1046.59 715.682 0 1046.2 712.357 0 1058.38 716.22 0 1059.27 712.954 0 1067.88 716.49 0 1069.42 713.59 0 1083.33 722.141 0 1112.68 744.866 0 1137.03 767.086 0</DataArray>
</Points>
<Verts>
 <DataArray type="Int64" Name="connectivity" format="ascii">0 1 2 3 4 5 6 7 8 9 10 11 12 13 14 15 16 17 18 19 20 21 22 23 24 25 26 27 28 29 30 31 32 33 34 35 36 37 38 39 40 41 42 43 44 45 46 47 48 49 50 51 52 53 54 55 56 57 58 59 60 61 62 63 64 65 66 67 68 69 70 71 72 73 74 75 76 77 78 79 80 81 82 83 84 85 86 87 88 89 90 91 92 93 94 95 96 97 98 99 100 101 102 103 104 105 106 107 108 109 110 111 112 113 114 115 116 117 118 119 120 121 122 123 124 125 126 127 128 129 130 131 132 133 134 135 136 137 138 139 140 141 142 143 144 145 146 147 148 149 150 151 152 153 154 155 156 157 158 159 160 161 162 163 164 165 166 167 168 169 170</DataArray>
 <DataArray type="Int64" Name="offsets" format="ascii">171</DataArray>
</Verts>
<Lines>
 <DataArray type="Int64" Name="connectivity" format="ascii"/>
 <DataArray type="Int64" Name="offsets" format="ascii"/>
</Lines>
<Stripes>
 <DataArray type="Int64" Name="connectivity" format="ascii"/>
 <DataArray type="Int64" Name="offsets" format="ascii"/>
</Stripes>
<Polys>
 <DataArray type="Int64" Name="connectivity" format="ascii"/>
 <DataArray type="Int64" Name="offsets" format="ascii"/>
</Polys>
</Piece>
</PolyData>
</VTKFile>