<?xml version="1.0" encoding="UTF-8" ?>
<VTKFile type="PolyData" version="0.1" order="LittleEndian">
<PolyData>
 <Piece NumberOfPoints="144" NumberOfVerts="1" NumberOfLines="0" NumberOfStrips="0" NumberOfPolys="0">
<PointData>
 <DataArray type="Float64" Name="speed" format="ascii">0.150992 0.734954 0.541769 0.623925 0.538966 13.0797 2.15185 0.000573285 0.00481007 0.638247 0.0138433 0.0327699 0.467036 0.00016219 0.311306 0.00276534 0.00543097 0.0212098 0.959586 0.191071 0.125724 1.11958 0.247205 0.401755 0.377553 0.898583 0.882337 1.7651 1.12067 0.635864 2.34933 5.35135 3.72181 0.83132 1.89692 0.904036 0.99162 0.702739 0.381854 6.53481 13.8617 12.4372 13.6603 12.5676 12.6541 11.8439 11.1408 5.32712 0 13.0547 13.2165 12.6173 13.3296 12.5152 12.5642 12.7813 12.5827 13.2548 2.4332e-13 13.4344 0 0 13.128 13.7808 1.00295e-15 3.27561e-16 12.7305 0 2.7046e-14 12.7861 3.32343e-05 12.443 12.6295 12.7162 0.000180516 1.88054e-12 0.0010831 13.167 1.36516e-10 0.127469 6.39954e-10 1.48629 0.365014 1.63398 0.560694 1.39638e-07 0.273907 1.6151e-06 0.240569 9.72837e-06 3.71862e-05 0.000162602 0.764138 0.00142973 10.1689 13.7601 5.7704 3.41993e-15 9.82982e-14 1.15652e-10 0.000155627 7.06806 13.0228 10.4742 5.96388 1.66356e-09 12.988 13.6533 13.7881 13.6443 13.2954 13.5718 13.4182 9.50258 5.16964 1.47459 9.82001 8.59983 0 2.51826e-11 0.0130712 5.39113 13.3885 0.00367535 0.00881295 5.63851 12.8747 12.8128 13.3394 13.8788 12.8073 13.4851 13.8396 8.50927 13.8316 8.1524 0 12.4082 12.7067 13.6169 6.13949 13.4266 13.1083 3.14228</DataArray>
</PointData>
<CellData/>
<Points>
 <DataArray type="Float64" Name="Points" NumberOfComponents="3" format="ascii">814.863 692.088 0 791.487 693.843 0 768.481 699.126 0 746.044 706.52 0 716.296 717.673 0 557.816 787.07 0 859.111 695.97 0 841.798 692.27 0 834.998 692.109 0 849.887 695.755 0 828.174 691.948 0 821.795 691.977 0 842.192 695.576 0 834.924 695.407 0 807.671 692.266 0 828.121 695.249 0 821.907 695.276 0 815.121 695.386 0 799.963 693.017 0 808.313 695.522 0 801.34 696.2 0 783.82 695.365 0 794.225 696.891 0 775.703 697.355 0 786.783 698.034 0 779.582 699.8 0 761.362 701.272 0 771.275 701.839 0 762.257 704.454 0 753.743 703.874 0 754.614 707.063 0 745.59 710.164 0 732.807 714.558 0 738.541 709.098 0 722.839 718.44 0 714.666 721.972 0 731.205 711.62 0 723.358 714.622 0 707.155 725.218 0 708.931 720.855 0 690.741 728.666 0 646.41 747.56 0 610.186 767.173 0 570.47 785.23 0 528.988 798.995 0 479.238 820.119 0 471.199 827.123 0 441.514 839.75 0 431.109 840.597 0 1414.17 944.173 0 1392.36 925.164 0 1374.3 906.778 0 1299.06 854.782 0 1196.13 794.918 0 1324.78 876.079 0 1392.24 920.68 0 1410.79 936.85 0 1306.91 864.046 0 971.406 654.043 0 1357.05 898.298 0 932.722 679.25 0 926.487 681.967 0 1321.54 869.919 0 1354.83 892.598 0 920.412 684.747 0 914.506 687.641 0 1374.82 911.241 0 934.042 682.28 0 908.226 689.612 0 1448.46 967.17 0 935.362 685.3 0 1281.78 847.123 0 1215.16 802.234 0 1241.61 817.714 0 927.807 684.997 0 901.749 690.696 0 921.616 687.816 0 1265.26 832.02 0 895.183 690.405 0 929.11 688.024 0 888.384 690.199 0 915.145 690.949 0 897.342 693.798 0 908.956 696.233 0 889.386 693.533 0 881.585 689.993 0 881.879 693.305 0 874.786 689.788 0 874.479 693.081 0 867.987 689.582 0 861.465 690.306 0 855.398 692.59 0 866.817 692.849 0 848.599 692.43 0 884.453 620.955 0 643.808 741.051 0 456.495 824.055 0 1047.56 676.366 0 1046.92 674.363 0 1045.66 672.931 0 1041.8 671.26 0 886.665 534.105 0 793.323 687.519 0 503.855 802.663 0 909.122 561.477 0 1043.73 672.095 0 979.703 632.536 0 456.838 853.164 0 551.721 811.859 0 655.236 767.556 0 745.273 732.681 0 844.729 716.192 0 957.803 719.988 0 1069.92 741.117 0 1117.33 764.608 0 1143.17 779.784 0 866.902 589.04 0 876.1 605.766 0 939.7 710.34 0 939.499 712.432 0 939.298 714.53 0 1126.99 770.277 0 1092.97 717.266 0 1006.94 704.869 0 1010.11 698.401 0 882.256 542.118 0 706.043 732.882 0 762.588 711.317 0 784.46 705.399 0 842.953 702.178 0 873.93 702.964 0 944.235 707.431 0 966.539 708.376 0 1020.76 720.997 0 1067.66 722.995 0 1117.48 752.547 0 1138.63 768.275 0 877.788 594.545 0 905.754 632.419 0 947.89 678.284 0 1008.61 713.672 0 1061.42 716.358 0 1099.28 735.299 0 1136.58 762.634 0</DataArray>
</Points>
<Verts>
 <DataArray type="Int64" Name="connectivity" format="ascii">0 1 2 3 4 5 6 7 8 9 10 11 12 13 14 15 16 17 18 19 20 21 22 23 24 25 26 27 28 29 30 31 32 33 34 35 36 37 38 39 40 41 42 43 44 45 46 47 48 49 50 51 52 53 54 55 56 57 58 59 60 61 62 63 64 65 66 67 68 69 70 71 72 73 74 75 76 77 78 79 80 81 82 83 84 85 86 87 88 89 90 91 92 93 94 95 96 97 98 99 100 101 102 103 104 105 106 107 108 109 110 111 112 113 114 115 116 117 118 119 120 121 122 123 124 125 126 127 128 129 130 131 132 133 134 135 136 137 138 139 140 141 142 143</DataArray>
 <DataArray type="Int64" Name="offsets" format="ascii">144</DataArray>
</Verts>
<Lines>
 <DataArray type="Int64" Name="connectivity" format="ascii"/>
 <DataArray type="Int64" Name="offsets" format="ascii"/>
</Lines>
<Stripes>
 <DataArray type="Int64" Name="connectivity" format="ascii"/>
 <DataArray type="Int64" Name="offsets" format="ascii"/>
</Stripes>
<Polys>
 <DataArray type="Int64" Name="connectivity" format="ascii"/>
 <DataArray type="Int64" Name="offsets" format="ascii"/>
</Polys>
</Piece>
</PolyData>
</VTKFile>