<?xml version="1.0" encoding="UTF-8" ?>
<VTKFile type="PolyData" version="0.1" order="LittleEndian">
<PolyData>
 <Piece NumberOfPoints="194" NumberOfVerts="1" NumberOfLines="0" NumberOfStrips="0" NumberOfPolys="0">
<PointData>
 <DataArray type="Float64" Name="speed" format="ascii">9.68101e-12 0.00359406 0.745285 1.02985 2.57925 3.86281 4.86941 0.660276 0.14993 0.00144441 8.9474e-06 2.86316e-07 4.57346e-06 4.03192e-05 0.000290572 0.00628886 13.1756 13.6423 13.3422 11.9117 13.8972 12.9614 7.94724e-16 7.4023e-15 1.79122e-13 2.12668e-11 7.39934e-09 4.23035e-08 4.77801e-07 2.6355e-05 0.000115776 13.2964 0.000439197 12.5999 12.812 12.3646 0.000565961 13.6418 13.0753 0.0015117 13.7121 12.614 13.0441 0.0193171 0.133544 13.8214 13.8657 13.2322 0.497153 12.8244 0.189024 0.700092 0 0 1.72309e-13 2.05659e-11 0.274905 9.20272e-11 0.822339 7.29464e-10 1.24923 1.52125e-09 3.86563e-08 1.17993 0.812269 2.00219e-07 1.10358e-06 6.25865e-05 5.29449 0.000556939 0.00083762 0.00274371 1.48429 0.0495512 0.245807 0.201933 6.77317 0.757596 1.0541 1.20598 1.60605 3.48866 8.58861 0.693658 7.74741 0.388733 6.05929 0.106106 5.11301 3.90111 0.864795 1.10839 0.0252096 0.541887 0.0101286 1.25799 0.00625911 1.49236 1.30478 0.000342408 0.770361 2.21415 9.88815e-05 0.595001 0.625541 8.18591e-07 1.97437 4.80701e-07 1.49255 1.76472 2.21503e-07 0.884593 0.898612 0.206605 1.09004e-06 2.19257e-06 0.64609 0.479444 0.181295 6.0777e-06 0.174982 7.22655e-06 0.388759 0.157973 0.523615 8.00909e-05 0.723181 0.000315794 0.402187 0.229179 0.000336244 0.571491 0.344115 0.00484288 0.608589 0.374793 0.486552 0.371093 11.8061 7.05089 1.38308 13.6128 13.5767 1.30524 4.59848e-14 1.52462e-11 6.50099e-11 10.4586 6.01026 13.5847 0.037835 13.1808 13.7613 7.12554 1.26066 13.2567 13.5022 12.7789 13.6993 13.0417 8.52319 1.99722 1.50817 3.83522 7.83669e-16 1.82204e-07 11.7367 0.155037 13.1458 12.5066 10.3311 12.5408 13.2066 12.9664 13.7783 12.5612 13.5632 12.4627 6.54956 4.51539 6.96247 10.7915 1.13542 5.28154 0.0019472 12.5934 12.5525 12.508 13.3082 13.2154 9.93357 13.2685 12.5494 5.1521</DataArray>
</PointData>
<CellData/>
<Points>
 <DataArray type="Float64" Name="Points" NumberOfComponents="3" format="ascii">920.689 655.369 0 919.097 669.391 0 818.957 692.022 0 796.026 693.401 0 763.367 700.588 0 730.476 711.87 0 694.993 726.855 0 667.756 738.462 0 647.739 746.993 0 622.529 757.824 0 603.999 766.395 0 585.471 774.964 0 560.632 785.905 0 541.781 793.703 0 522.926 801.531 0 497.881 812.187 0 1311.65 867.234 0 1289.29 852.183 0 1249.75 826.297 0 1201.4 794.181 0 1103.17 729.949 0 1081.71 709.493 0 932.722 679.25 0 926.487 681.967 0 920.412 684.747 0 914.506 687.641 0 908.226 689.612 0 901.749 690.696 0 895.183 690.405 0 888.384 690.199 0 881.585 689.993 0 1331.65 876.724 0 874.786 689.788 0 1331.84 880.834 0 1268.69 838.304 0 1152.72 765.689 0 867.986 689.582 0 1103.09 725.614 0 1284.67 845.092 0 861.464 690.308 0 1306.55 859.825 0 1198.54 796.332 0 1171.62 776.75 0 855.394 692.59 0 848.565 692.429 0 1220.84 805.558 0 1263.6 830.907 0 1127.71 751.93 0 841.58 692.264 0 1149.15 767.429 0 834.075 692.087 0 826.963 691.937 0 927.807 684.997 0 934.042 682.28 0 921.617 687.816 0 915.503 690.794 0 811.007 692.149 0 908.995 692.821 0 803.836 692.64 0 902.095 693.986 0 787.908 694.362 0 895.083 693.705 0 888.284 693.499 0 780.043 696.291 0 771.102 698.484 0 881.485 693.293 0 874.686 693.088 0 867.887 692.882 0 754.425 703.64 0 861.373 693.604 0 855.326 695.882 0 848.523 695.723 0 719.241 716.4 0 841.656 695.564 0 834.766 695.403 0 827.6 695.24 0 709.953 720.414 0 821.164 695.288 0 813.248 695.416 0 805.339 695.811 0 683.34 731.821 0 796.029 696.716 0 783.98 698.721 0 674.674 735.514 0 765.953 703.193 0 660.75 741.448 0 752.08 707.934 0 654.098 744.283 0 739.437 712.279 0 728.005 716.208 0 717.518 720.74 0 710.069 723.959 0 641.339 749.721 0 702.603 727.185 0 635.049 752.402 0 695.618 730.172 0 628.782 755.073 0 687.01 733.841 0 679.102 737.211 0 616.351 760.682 0 662.105 744.455 0 670.857 740.725 0 610.175 763.538 0 654.871 747.538 0 647.412 750.717 0 597.823 769.251 0 640.506 753.66 0 591.647 772.108 0 632.1 757.243 0 623.481 761.023 0 579.312 777.709 0 615.584 764.676 0 607.884 768.238 0 600.642 771.589 0 573.095 780.463 0 566.877 783.217 0 593.958 774.681 0 587.161 777.826 0 580.378 780.841 0 554.348 788.505 0 573.777 783.765 0 548.064 791.104 0 567.301 786.635 0 560.64 789.47 0 554.073 792.188 0 535.497 796.302 0 547.166 795.047 0 529.213 798.901 0 540.078 797.98 0 533.244 800.808 0 516.667 804.194 0 526.668 803.537 0 519.791 806.453 0 504.147 809.521 0 513.101 809.299 0 506.023 812.309 0 499.17 815.225 0 491.165 815.045 0 478.722 823.923 0 447.768 837.09 0 432.381 840.056 0 878.977 682.373 0 579.389 768.92 0 427.898 837.544 0 1047.56 676.366 0 1046.92 674.363 0 1045.66 672.931 0 914.523 567.954 0 933.622 670.167 0 635.261 744.749 0 1043.72 672.091 0 932.762 717.513 0 1027.47 729.283 0 1106.56 758.279 0 1142.4 779.328 0 474.385 845.525 0 539.777 817.058 0 654.9 767.686 0 739.029 735.1 0 850.642 716.281 0 884.329 620.729 0 906.391 655.063 0 909.612 657.588 0 913.006 660.681 0 939.604 711.337 0 939.404 713.429 0 959.243 720.18 0 1145.38 781.081 0 1036.81 675.336 0 1014.94 681.499 0 1002.73 662.75 0 1022.41 671.531 0 722.899 725.604 0 780.207 706.445 0 806.042 702.377 0 877.814 703.081 0 899.106 704.488 0 989.06 712.112 0 1033.83 721.692 0 1047.68 722.336 0 1060.84 722.936 0 1106.14 744.121 0 1137.72 767.597 0 742.003 707.909 0 510.407 806.857 0 883.83 607.256 0 878.61 588.587 0 968.813 708.473 0 907.511 634.52 0 949.864 680.332 0 986.867 701.387 0 1025.1 714.647 0 1088.17 726.136 0 1131.57 758.91 0</DataArray>
</Points>
<Verts>
 <DataArray type="Int64" Name="connectivity" format="ascii">0 1 2 3 4 5 6 7 8 9 10 11 12 13 14 15 16 17 18 19 20 21 22 23 24 25 26 27 28 29 30 31 32 33 34 35 36 37 38 39 40 41 42 43 44 45 46 47 48 49 50 51 52 53 54 55 56 57 58 59 60 61 62 63 64 65 66 67 68 69 70 71 72 73 74 75 76 77 78 79 80 81 82 83 84 85 86 87 88 89 90 91 92 93 94 95 96 97 98 99 100 101 102 103 104 105 106 107 108 109 110 111 112 113 114 115 116 117 118 119 120 121 122 123 124 125 126 127 128 129 130 131 132 133 134 135 136 137 138 139 140 141 142 143 144 145 146 147 148 149 150 151 152 153 154 155 156 157 158 159 160 161 162 163 164 165 166 167 168 169 170 171 172 173 174 175 176 177 178 179 180 181 182 183 184 185 186 187 188 189 190 191 192 193</DataArray>
 <DataArray type="Int64" Name="offsets" format="ascii">194</DataArray>
</Verts>
<Lines>
 <DataArray type="Int64" Name="connectivity" format="ascii"/>
 <DataArray type="Int64" Name="offsets" format="ascii"/>
</Lines>
<Stripes>
 <DataArray type="Int64" Name="connectivity" format="ascii"/>
 <DataArray type="Int64" Name="offsets" format="ascii"/>
</Stripes>
<Polys>
 <DataArray type="Int64" Name="connectivity" format="ascii"/>
 <DataArray type="Int64" Name="offsets" format="ascii"/>
</Polys>
</Piece>
</PolyData>
</VTKFile>