<?xml version="1.0" encoding="UTF-8" ?>
<VTKFile type="PolyData" version="0.1" order="LittleEndian">
<PolyData>
 <Piece NumberOfPoints="128" NumberOfVerts="1" NumberOfLines="0" NumberOfStrips="0" NumberOfPolys="0">
<PointData>
 <DataArray type="Float64" Name="speed" format="ascii">0.00422405 0.00296419 0.000131031 1.97697 13.6515 0.403594 0.000221916 0.000546813 0.154976 0.00314614 0.00640046 3.37528 13.5121 13.8353 13.6205 13.465 12.5233 12.9672 12.636 13.886 6.88619 3.42497 12.6132 12.5117 13.2721 13.1331 13.0155 12.6691 4.38419e-07 6.19704e-05 0 13.5218 13.8391 13.6894 12.6295 0 3.33359e-16 13.5732 13.2046 7.52877e-09 13.3673 13.0906 13.8186 0 5.57757e-16 0 13.0463 13.7015 1.43472e-06 6.07482e-14 2.8022e-06 0.000167045 3.22553e-13 7.82661e-10 0.000486006 0.0102986 7.08348e-10 1.60749e-05 0.0864406 0.000223364 0.000256038 0.0953306 0.213064 0.0683817 0.0359085 0.966533 1.01524 1.7869 0.566215 0.678533 0.759544 1.18478 1.61635 2.78606 2.66511 1.14148 0.693717 0.583035 1.15826 0.0980826 0.0610274 2.04042e-05 0.648312 2.23064e-05 12.8855 13.0679 5.43247e-17 0.0024778 13.1735 11.2014 5.36509e-16 4.7677e-15 0 4.77496e-14 11.9751 13.3817 12.8549 13.05 13.8317 13.2392 12.2477 8.65077 5.39471 0.856727 0 3.56881e-15 3.39059e-05 10.4567 2.51033e-09 1.00339e-13 8.01279e-07 1.32429e-05 2.12429 0.543091 12.4827 12.871 12.6339 12.4459 13.736 0.00157135 13.1187 4.13892 12.9811 13.7858 12.5862 0.935731 13.7009 7.7262</DataArray>
</PointData>
<CellData/>
<Points>
 <DataArray type="Float64" Name="Points" NumberOfComponents="3" format="ascii">920.688 655.374 0 919.097 669.392 0 801.367 692.88 0 766.753 699.55 0 508.61 807.622 0 789.049 697.478 0 794.564 693.544 0 787.792 694.391 0 781.909 699.23 0 781.153 696.019 0 774.51 697.648 0 774.404 701.071 0 739.526 708.76 0 700.517 724.49 0 679.475 737.052 0 636.442 751.808 0 586.193 774.631 0 555.228 788.141 0 517.83 807.287 0 485.129 821.197 0 449.382 836.403 0 435.665 838.659 0 1464.68 978.336 0 1431.43 958.443 0 1444.51 964.186 0 1546.12 1020.65 0 1392.73 921.11 0 1350.42 889.391 0 973.271 656.776 0 965.777 658.007 0 932.722 679.25 0 1545.25 1023.91 0 1329.99 879.585 0 1518.95 1011.12 0 1520.57 1008.23 0 920.412 684.747 0 914.506 687.641 0 1490.59 993.042 0 1369.95 903.61 0 915.503 690.794 0 1412.41 938.263 0 1490.4 996.722 0 1313.52 864.52 0 934.042 682.28 0 971.406 654.043 0 926.487 681.967 0 1415.98 945.685 0 1471.86 986.324 0 908.226 689.612 0 935.362 685.3 0 901.749 690.696 0 895.183 690.405 0 927.807 684.997 0 921.617 687.816 0 888.384 690.199 0 881.572 689.993 0 929.127 688.017 0 908.995 692.821 0 874.661 689.784 0 922.83 690.889 0 902.095 693.986 0 916.484 693.953 0 881.099 693.282 0 895.047 693.704 0 888.133 693.495 0 867.673 689.572 0 873.207 693.043 0 865.37 692.805 0 859.95 691.894 0 857.57 695.934 0 852.179 692.514 0 849.291 695.741 0 841.26 695.554 0 832.52 695.351 0 823.033 695.258 0 844.336 692.329 0 812.821 695.423 0 835.867 692.13 0 804.98 695.846 0 828.391 691.953 0 821.899 691.975 0 815.003 692.085 0 796.513 696.669 0 808.17 692.217 0 814.722 681.867 0 564.457 775.379 0 937.093 670.973 0 935.043 670.497 0 733.358 704.027 0 532.149 789.883 0 1047.56 676.366 0 1046.92 674.363 0 1046.78 707.263 0 1045.66 672.931 0 951.295 612.047 0 502.488 833.291 0 623.303 780.697 0 657.107 766.831 0 807.562 716.778 0 865.131 716.498 0 1024.68 728.912 0 1079.76 744.01 0 1123.18 768.043 0 1144.78 780.725 0 939.7 710.34 0 939.499 712.432 0 939.299 714.524 0 1042.41 733.028 0 1010.1 698.408 0 1006.94 704.869 0 1012.1 691.499 0 1014.07 684.578 0 879.652 533.955 0 1015.75 720.703 0 724.023 725.119 0 746.985 716.665 0 803.914 702.583 0 834.282 701.987 0 881.343 703.188 0 1008.68 720.289 0 1060.81 722.934 0 1133.61 764.543 0 874.251 587.104 0 891.052 622.448 0 937.278 665.975 0 1048.11 715.752 0 1094.39 731.262 0 1123.72 753.072 0</DataArray>
</Points>
<Verts>
 <DataArray type="Int64" Name="connectivity" format="ascii">0 1 2 3 4 5 6 7 8 9 10 11 12 13 14 15 16 17 18 19 20 21 22 23 24 25 26 27 28 29 30 31 32 33 34 35 36 37 38 39 40 41 42 43 44 45 46 47 48 49 50 51 52 53 54 55 56 57 58 59 60 61 62 63 64 65 66 67 68 69 70 71 72 73 74 75 76 77 78 79 80 81 82 83 84 85 86 87 88 89 90 91 92 93 94 95 96 97 98 99 100 101 102 103 104 105 106 107 108 109 110 111 112 113 114 115 116 117 118 119 120 121 122 123 124 125 126 127</DataArray>
 <DataArray type="Int64" Name="offsets" format="ascii">128</DataArray>
</Verts>
<Lines>
 <DataArray type="Int64" Name="connectivity" format="ascii"/>
 <DataArray type="Int64" Name="offsets" format="ascii"/>
</Lines>
<Stripes>
 <DataArray type="Int64" Name="connectivity" format="ascii"/>
 <DataArray type="Int64" Name="offsets" format="ascii"/>
</Stripes>
<Polys>
 <DataArray type="Int64" Name="connectivity" format="ascii"/>
 <DataArray type="Int64" Name="offsets" format="ascii"/>
</Polys>
</Piece>
</PolyData>
</VTKFile>