<?xml version="1.0" encoding="UTF-8" ?>
<VTKFile type="PolyData" version="0.1" order="LittleEndian">
<PolyData>
 <Piece NumberOfPoints="196" NumberOfVerts="1" NumberOfLines="0" NumberOfStrips="0" NumberOfPolys="0">
<PointData>
 <DataArray type="Float64" Name="speed" format="ascii">1.12769e-09 0.00873225 0.516574 0.772882 6.24218 3.81387 1.49156 0.100994 0.0185303 0.000176547 4.70178e-07 5.52886e-07 5.95783e-06 3.25167e-05 0.000585068 0.0183688 12.651 13.2227 12.6285 13.8968 13.7993 12.7738 7.28738e-16 2.48862e-13 6.11732e-12 6.67464e-11 7.34067e-08 1.51122e-07 6.79963e-05 8.65538e-05 0.000503638 13.5145 0.000317931 12.8466 13.047 13.1119 0.000303938 12.7608 13.2171 0.0249285 13.6937 12.9697 13.4955 0.0714236 0.246143 13.7166 12.4286 12.841 0.450601 13.3696 0.832255 0.669051 0 0 4.93892e-12 3.84309e-10 0.756239 7.97556e-10 0.37354 1.11397e-08 1.94075 9.78439e-09 4.30814e-07 2.21435 1.99462 1.17141e-05 0.000137942 0.000109718 3.98148 0.001302 0.00326926 0.059165 6.7039 0.241108 0.473254 1.14965 3.73135 0.305651 2.62097 6.36569 0.541119 8.81539 6.54352 0.425778 4.1069 0.146705 3.09409 0.0179972 1.85806 0.876076 1.12332 0.57538 0.012355 0.915563 0.00308799 1.50097 0.0010713 1.47966 1.36317 1.59216e-05 0.554793 0.732095 1.361e-06 0.999574 1.62269 8.53834e-08 1.04081 2.9308e-07 1.06043 1.37564 1.16206e-06 0.495642 0.59224 0.766312 5.14611e-06 3.69368e-06 0.306612 0.383604 0.323991 1.74615e-05 0.192389 1.49282e-05 0.226627 0.699208 0.32256 0.000244173 0.349926 0.000174016 0.457384 0.468386 0.00184161 0.380306 0.327625 0.00532412 0.780277 0.891217 0.958094 9.97775 9.17909 3.49083 13.4508 12.7371 0 5.26865e-14 9.68555e-11 7.72571e-10 9.05309 11.9793 13.4085 1.32105 13.2136 12.5871 6.38655 0.698008 13.1309 13.8842 12.7129 13.7398 12.9199 8.05262 1.09987 2.06748 5.18117 6.25855e-16 4.61805e-07 12.8436 13.315 12.3978 9.10531 8.53478 9.60881 13.5071 13.5973 13.5515 13.2939 13.4455 11.9717 8.98757 3.03101 1.02806 12.7295 7.90326 1.67686 0.0052284 13.3651 12.8325 12.6157 13.0651 12.4047 10.8049 13.0342 13.4551 6.99419 12.6898 11.5088 2.32725</DataArray>
</PointData>
<CellData/>
<Points>
 <DataArray type="Float64" Name="Points" NumberOfComponents="3" format="ascii">920.689 655.369 0 919.098 669.401 0 817.614 692.044 0 793.944 693.604 0 758.209 702.348 0 724.679 714.051 0 688.176 729.76 0 666.7 738.912 0 647.577 747.062 0 622.527 757.825 0 603.999 766.395 0 585.471 774.964 0 560.632 785.905 0 541.781 793.703 0 522.925 801.531 0 497.871 812.191 0 1289.73 852.474 0 1267 837.167 0 1226.42 812.643 0 1179.49 781.358 0 1081.85 713.03 0 1062.15 694.569 0 932.722 679.25 0 926.487 681.967 0 920.412 684.747 0 914.506 687.641 0 908.226 689.612 0 901.749 690.696 0 895.183 690.405 0 888.384 690.199 0 881.585 689.993 0 1310.04 862.174 0 874.785 689.788 0 1310.62 866.541 0 1247.17 824.786 0 1132.58 751.436 0 867.985 689.582 0 1082.05 709.565 0 1262.58 830.217 0 861.45 690.322 0 1284.68 845.099 0 1176.62 783.504 0 1149.33 763.706 0 855.351 692.589 0 848.284 692.423 0 1198.18 792.292 0 1240.91 817.305 0 1106.93 736.476 0 840.7 692.244 0 1127.46 751.739 0 833.439 692.073 0 825.242 691.932 0 927.807 684.997 0 934.042 682.28 0 921.617 687.816 0 915.503 690.794 0 809.981 692.166 0 908.995 692.821 0 802.168 692.802 0 902.095 693.986 0 786.212 694.778 0 895.083 693.705 0 888.284 693.499 0 777.454 696.926 0 768.194 699.197 0 881.485 693.293 0 874.686 693.088 0 867.887 692.882 0 744.585 707.022 0 861.372 693.605 0 855.323 695.881 0 848.512 695.723 0 713.19 719.015 0 841.475 695.559 0 834.273 695.392 0 827.029 695.238 0 698.64 725.3 0 819.146 695.321 0 811.932 695.437 0 802.019 696.134 0 680.304 733.115 0 784.14 698.682 0 767.016 702.884 0 673.409 736.053 0 753.074 707.592 0 660.274 741.651 0 741.955 711.414 0 653.862 744.384 0 731.65 714.956 0 722.942 718.396 0 715.674 721.537 0 708.378 724.689 0 641.303 749.737 0 700.894 727.924 0 635.033 752.409 0 692.62 731.45 0 628.773 755.077 0 684.227 735.027 0 676.009 738.529 0 616.351 760.682 0 660.607 745.093 0 668.148 741.879 0 610.175 763.538 0 653.163 748.266 0 645.514 751.526 0 597.823 769.251 0 637.551 754.919 0 591.647 772.108 0 629.096 758.524 0 621.055 762.145 0 579.312 777.709 0 613.457 765.66 0 606.789 768.745 0 600.022 771.876 0 573.095 780.463 0 566.877 783.217 0 593.023 775.113 0 586.561 778.103 0 579.928 781.04 0 554.348 788.505 0 573.293 783.98 0 548.064 791.104 0 566.847 786.835 0 560.349 789.591 0 552.979 792.641 0 535.497 796.302 0 546.228 795.435 0 529.213 798.902 0 539.474 798.23 0 532.584 801.082 0 516.666 804.194 0 525.733 803.929 0 519.108 806.743 0 504.134 809.526 0 512.313 809.634 0 505.327 812.606 0 497.618 815.885 0 487.14 816.757 0 457.922 832.771 0 437.001 841.67 0 852.271 682.163 0 555.09 779.52 0 426.503 838.736 0 1047.56 676.366 0 1046.92 674.363 0 1045.66 672.931 0 901.703 552.58 0 920.071 663.869 0 610.897 755.289 0 1043.4 671.951 0 958.836 720.126 0 1053.42 736.265 0 1118.82 765.481 0 1144.47 780.547 0 499.181 834.731 0 564.592 806.256 0 679.146 758.295 0 763.676 725.553 0 876.904 716.675 0 892.334 635.285 0 908.99 657.092 0 911.392 659.205 0 920.417 666.464 0 939.604 711.337 0 939.404 713.429 0 984.155 723.504 0 639.111 761.437 0 1014.42 662.807 0 1001.72 662.06 0 986.377 651.641 0 1002.61 658.678 0 726.481 724.058 0 747.757 716.399 0 805.571 702.423 0 832.304 701.944 0 903.203 705.295 0 926.012 706.485 0 1010.82 720.414 0 1044.49 722.188 0 1054.34 722.639 0 1076.59 725.141 0 1121.97 755.89 0 733.446 710.85 0 510.404 806.859 0 872.315 583.031 0 880.221 591.977 0 900.072 626.829 0 889.662 611.842 0 876.252 575.945 0 991.973 714.092 0 924.932 654.175 0 971.557 694.358 0 1002.13 709.593 0 1050.75 715.872 0 1107.48 741 0 1136.76 766.886 0</DataArray>
</Points>
<Verts>
 <DataArray type="Int64" Name="connectivity" format="ascii">0 1 2 3 4 5 6 7 8 9 10 11 12 13 14 15 16 17 18 19 20 21 22 23 24 25 26 27 28 29 30 31 32 33 34 35 36 37 38 39 40 41 42 43 44 45 46 47 48 49 50 51 52 53 54 55 56 57 58 59 60 61 62 63 64 65 66 67 68 69 70 71 72 73 74 75 76 77 78 79 80 81 82 83 84 85 86 87 88 89 90 91 92 93 94 95 96 97 98 99 100 101 102 103 104 105 106 107 108 109 110 111 112 113 114 115 116 117 118 119 120 121 122 123 124 125 126 127 128 129 130 131 132 133 134 135 136 137 138 139 140 141 142 143 144 145 146 147 148 149 150 151 152 153 154 155 156 157 158 159 160 161 162 163 164 165 166 167 168 169 170 171 172 173 174 175 176 177 178 179 180 181 182 183 184 185 186 187 188 189 190 191 192 193 194 195</DataArray>
 <DataArray type="Int64" Name="offsets" format="ascii">196</DataArray>
</Verts>
<Lines>
 <DataArray type="Int64" Name="connectivity" format="ascii"/>
 <DataArray type="Int64" Name="offsets" format="ascii"/>
</Lines>
<Stripes>
 <DataArray type="Int64" Name="connectivity" format="ascii"/>
 <DataArray type="Int64" Name="offsets" format="ascii"/>
</Stripes>
<Polys>
 <DataArray type="Int64" Name="connectivity" format="ascii"/>
 <DataArray type="Int64" Name="offsets" format="ascii"/>
</Polys>
</Piece>
</PolyData>
</VTKFile>