<?xml version="1.0" encoding="UTF-8" ?>
<VTKFile type="PolyData" version="0.1" order="LittleEndian">
<PolyData>
 <Piece NumberOfPoints="68" NumberOfVerts="1" NumberOfLines="0" NumberOfStrips="0" NumberOfPolys="0">
<PointData>
 <DataArray type="Float64" Name="speed" format="ascii">13.4287 13.4348 0 2.31325e-06 5.23487 2.3566 8.19421 12.6897 13.5036 13.1692 13.7323 13.079 12.5622 13.3541 1.47628e-06 13.2403 13.8581 13.111 12.406 4.22719 0.000139032 1.68497e-05 0.00287407 0.294705 0.639565 0.000231752 1.1235 12.7308 13.148 5.40728 1.19994e-06 12.8982 13.6128 0 0.00021413 0.538857 0 13.7799 13.1216 13.5303 13.8261 13.6294 13.1871 7.24816 4.13797 0 2.00295e-07 7.49493 6.3983 0.109052 0.000449263 0.661423 0 13.1073 13.266 4.62879 13.1363 13.6424 13.0865 13.5799 13.1686 12.4799 13.7478 13.421 8.9842 0 12.9185 13.4639</DataArray>
</PointData>
<CellData/>
<Points>
 <DataArray type="Float64" Name="Points" NumberOfComponents="3" format="ascii">859.942 688.691 0 612.165 762.618 0 932.722 679.25 0 934.042 682.28 0 892.941 690.337 0 878.991 689.915 0 867.906 689.579 0 819.858 692.008 0 801.496 696.184 0 754.824 703.504 0 724.035 717.924 0 676.157 734.882 0 646.429 747.552 0 608.441 767.981 0 926.487 681.967 0 577.591 782.076 0 535.602 796.259 0 495.896 813.031 0 471.427 827.026 0 440.888 840.016 0 920.412 684.747 0 927.807 684.997 0 914.504 687.642 0 915.38 690.847 0 908.124 689.638 0 921.616 687.816 0 901.028 690.716 0 873.652 601.314 0 694.254 719.228 0 455.067 824.7 0 937.093 670.973 0 915.333 659.961 0 585.587 766.239 0 1046.78 707.263 0 1047.56 676.365 0 884.855 531.434 0 1145.51 781.159 0 548.219 813.384 0 649.413 769.812 0 722.723 741.416 0 767.988 723.883 0 900.23 717.025 0 1001.61 725.834 0 1093.07 750.356 0 1132.65 773.602 0 939.604 711.337 0 939.404 713.429 0 944.139 718.165 0 1114.13 762.727 0 1010.13 698.357 0 1006.94 704.869 0 1012.3 690.784 0 877.566 531.495 0 1102.43 725.071 0 1087.42 734.068 0 1132.93 764.036 0 713.402 729.705 0 767.677 709.585 0 859.372 702.539 0 953.878 707.838 0 1022.34 721.089 0 936.953 665.664 0 987.671 706.098 0 1057.48 716.178 0 1120.57 750.731 0 1138.63 768.275 0 882.997 605.503 0 920.798 650.254 0</DataArray>
</Points>
<Verts>
 <DataArray type="Int64" Name="connectivity" format="ascii">0 1 2 3 4 5 6 7 8 9 10 11 12 13 14 15 16 17 18 19 20 21 22 23 24 25 26 27 28 29 30 31 32 33 34 35 36 37 38 39 40 41 42 43 44 45 46 47 48 49 50 51 52 53 54 55 56 57 58 59 60 61 62 63 64 65 66 67</DataArray>
 <DataArray type="Int64" Name="offsets" format="ascii">68</DataArray>
</Verts>
<Lines>
 <DataArray type="Int64" Name="connectivity" format="ascii"/>
 <DataArray type="Int64" Name="offsets" format="ascii"/>
</Lines>
<Stripes>
 <DataArray type="Int64" Name="connectivity" format="ascii"/>
 <DataArray type="Int64" Name="offsets" format="ascii"/>
</Stripes>
<Polys>
 <DataArray type="Int64" Name="connectivity" format="ascii"/>
 <DataArray type="Int64" Name="offsets" format="ascii"/>
</Polys>
</Piece>
</PolyData>
</VTKFile>