<?xml version="1.0" encoding="UTF-8" ?>
<VTKFile type="PolyData" version="0.1" order="LittleEndian">
<PolyData>
 <Piece NumberOfPoints="151" NumberOfVerts="1" NumberOfLines="0" NumberOfStrips="0" NumberOfPolys="0">
<PointData>
 <DataArray type="Float64" Name="speed" format="ascii">1.90931e-13 5.8584e-10 4.25385e-08 2.38228e-05 0.00253725 0.0158776 0.196869 0.321742 11.0908 2.29755 1.20958e-15 0 12.4567 2.7258e-16 0 5.32174 3.75211 2.94068e-16 2.32869 1.64839 0 9.40662e-16 0.0184174 0 0 0 3.00409e-16 1.28759 0.00525144 1.53468e-15 5.89873 0 7.17698e-15 2.6767 0.16404 2.81543 5.00956e-13 2.20538 1.15901 4.20809e-12 2.15065e-10 0.187345 2.05997e-09 3.17492e-08 0.0136241 0.0450668 0.162038 0.457287 4.12674e-07 0.602592 2.06261e-06 3.96174e-06 1.26831 0.940571 0.770182 4.12382e-05 1.62196 0.00116333 0.564623 1.05192 1.03756 0.00167974 0.512558 0.420634 0.0138411 0.510321 0.880351 1.17198 0.0506021 0.0414372 1.03368 0.642991 0.498147 0.505814 0.565629 0.354745 0.739427 0.523539 0.381535 0.218943 0.824455 0.651787 0.597786 1.87695 12.7353 12.493 13.3625 13.593 13.539 8.43236 4.21836 12.9787 2.56118 3.86252 13.2995 4.34899 1.86495 0.665773 0.137865 0 5.43372e-16 13.503 12.4644 12.0986 8.57846 4.58988 1.57992 1.35184 13.752 4.94743 7.3346 8.45385 13.3632 13.0959 13.3142 13.8619 12.7598 13.2827 6.58716 6.05157 5.81552 2.15179 0.105769 2.63561 3.73685 1.96431 10.7947 2.21243e-12 6.82672e-10 9.43545e-08 2.27975e-05 0.00035063 0.000112383 12.5165 2.2543 1.09237e-15 2.87832e-10 6.73926e-05 0.00233024 2.65945 7.12787 13.669 1.44321 2.49289e-10 8.62168e-07 4.29707e-05 0.0907707 2.35605 12.4844 3.99196 0</DataArray>
</PointData>
<CellData/>
<Points>
 <DataArray type="Float64" Name="Points" NumberOfComponents="3" format="ascii">815.003 692.085 0 787.793 694.391 0 767.877 699.275 0 741.95 707.927 0 722.681 714.914 0 703.833 723.058 0 684.869 731.169 0 657.674 742.759 0 630.915 754.164 0 433.223 839.698 0 881.585 689.993 0 874.786 689.788 0 969.419 655.175 0 867.987 689.582 0 861.465 690.306 0 945.879 677.18 0 934.574 682.048 0 855.398 692.59 0 923.723 686.82 0 930.638 687.358 0 915.503 690.794 0 848.599 692.43 0 916.507 693.943 0 902.095 693.986 0 841.801 692.27 0 922.83 690.889 0 835.002 692.109 0 908.597 696.325 0 895.083 693.705 0 828.203 691.949 0 898 697.132 0 876.58 693.145 0 821.838 691.976 0 883.086 696.639 0 869.762 692.938 0 861.918 693.028 0 808.17 692.217 0 852.603 695.818 0 843.204 695.6 0 801.367 692.88 0 794.564 693.543 0 835.106 695.411 0 781.154 696.019 0 774.515 697.647 0 828.097 695.248 0 821.857 695.277 0 815.019 695.387 0 807.998 695.552 0 761.348 701.277 0 800.559 696.276 0 754.879 703.485 0 748.414 705.706 0 793.225 696.989 0 784.525 698.588 0 776.834 700.475 0 735.486 710.149 0 769.442 702.288 0 729.021 712.37 0 761.218 704.808 0 754.236 707.193 0 746.522 709.844 0 716.403 717.627 0 738.633 712.555 0 731.629 714.963 0 710.122 720.34 0 724.826 717.582 0 717.989 720.536 0 710.934 723.585 0 697.548 725.765 0 691.222 728.462 0 702.635 727.171 0 695.072 730.405 0 688.023 733.409 0 678.371 733.938 0 681.306 736.272 0 671.531 736.853 0 664.921 739.671 0 667.487 742.161 0 674.209 739.296 0 660.536 745.124 0 654.051 747.888 0 650.571 745.787 0 646.931 750.922 0 643.379 748.852 0 607.091 768.605 0 593.685 771.165 0 555.976 791.401 0 523.717 801.194 0 493.099 814.222 0 452.538 831.479 0 437.934 841.273 0 1550.39 1026.41 0 948.972 671.595 0 940.893 675.805 0 1548.45 1021.79 0 928.341 681.159 0 916.917 686.545 0 908.997 689.416 0 901.881 690.692 0 895.183 690.405 0 888.384 690.199 0 826.895 681.963 0 538.055 787.215 0 1152.99 754.13 0 1120.7 728.664 0 952.001 659.087 0 939.71 668.193 0 937.856 671.15 0 737.345 702.93 0 445.829 828.873 0 985.832 723.728 0 1094.44 709.486 0 1068.47 688.969 0 543.966 815.235 0 571.466 803.264 0 643.912 771.942 0 843.326 716.171 0 892.701 716.912 0 998.222 725.381 0 1102.96 756.164 0 1111.21 761.009 0 1142.17 779.198 0 940.462 689.083 0 941.219 691.323 0 940.687 699.604 0 939.788 709.381 0 1047.08 734.4 0 1054.25 722.635 0 943.69 707.402 0 950.487 707.696 0 957.285 707.983 0 964.083 708.272 0 978.155 638.228 0 1441.28 961.746 0 1006.46 719.949 0 1047.46 722.326 0 1061.05 722.945 0 1067.24 723.011 0 1072.72 722.951 0 1078.31 726.561 0 1121.54 755.57 0 441.036 843.543 0 1007.62 713.585 0 1047.76 715.736 0 1047.91 712.436 0 1054.55 716.045 0 1054.77 712.748 0 1062.82 716.422 0 1097.98 734.229 0 1136.1 762.282 0 1138.63 768.275 0</DataArray>
</Points>
<Verts>
 <DataArray type="Int64" Name="connectivity" format="ascii">0 1 2 3 4 5 6 7 8 9 10 11 12 13 14 15 16 17 18 19 20 21 22 23 24 25 26 27 28 29 30 31 32 33 34 35 36 37 38 39 40 41 42 43 44 45 46 47 48 49 50 51 52 53 54 55 56 57 58 59 60 61 62 63 64 65 66 67 68 69 70 71 72 73 74 75 76 77 78 79 80 81 82 83 84 85 86 87 88 89 90 91 92 93 94 95 96 97 98 99 100 101 102 103 104 105 106 107 108 109 110 111 112 113 114 115 116 117 118 119 120 121 122 123 124 125 126 127 128 129 130 131 132 133 134 135 136 137 138 139 140 141 142 143 144 145 146 147 148 149 150</DataArray>
 <DataArray type="Int64" Name="offsets" format="ascii">151</DataArray>
</Verts>
<Lines>
 <DataArray type="Int64" Name="connectivity" format="ascii"/>
 <DataArray type="Int64" Name="offsets" format="ascii"/>
</Lines>
<Stripes>
 <DataArray type="Int64" Name="connectivity" format="ascii"/>
 <DataArray type="Int64" Name="offsets" format="ascii"/>
</Stripes>
<Polys>
 <DataArray type="Int64" Name="connectivity" format="ascii"/>
 <DataArray type="Int64" Name="offsets" format="ascii"/>
</Polys>
</Piece>
</PolyData>
</VTKFile>