<?xml version="1.0" encoding="UTF-8" ?>
<VTKFile type="PolyData" version="0.1" order="LittleEndian">
<PolyData>
 <Piece NumberOfPoints="169" NumberOfVerts="1" NumberOfLines="0" NumberOfStrips="0" NumberOfPolys="0">
<PointData>
 <DataArray type="Float64" Name="speed" format="ascii">13.5619 4.36991e-06 0.0011217 0.0385811 0.239953 0.939072 2.00118 2.81302 1.31838 1.77192 2.21944 13.3364 0 2.50328e-16 12.9474 0 0 13.5464 13.3466 0 13.7147 12.6184 13.5413 1.95409e-15 13.067 13.1013 4.37383e-14 12.9641 1.73216e-12 13.7711 13.836 6.26721e-11 12.832 13.7378 3.5582e-11 12.509 0 9.87115e-15 1.89455e-10 0 4.56588e-12 4.17822e-09 5.39371e-08 1.79981e-11 3.94943e-07 2.18054e-06 9.21463e-06 0.00155648 0.00415352 0.112173 5.51607e-05 1.36793 0.000279205 0.000498941 1.41006 2.08575 0.964255 0.00455654 0.289811 0.00868457 0.333117 0.908782 1.22077 0.0615149 0.632606 0.693277 0.165591 0.253552 0.133082 0.0146022 0.189438 0.342732 0.000928965 0.0051445 0.0192819 1.96918 0.0389992 1.7021 1.4468 0.274634 0.211295 0.648747 0.544715 4.16385 0.262776 3.47756 2.03675 1.00354 1.51214 2.48881 0.900509 0.302551 7.11141 8.88989 5.82091 0.894384 4.96289 3.3562 1.98287 1.62374 0.506223 0.424888 0.96992 4.05213 1.73661 1.16341 0.443463 1.59163 1.65529 0.549594 7.2383 13.392 12.6246 9.86464 4.59787 0 13.0751 12.6593 13.3996 13.325 13.5399 1.21281e-15 0 0 13.6399 12.8844 4.54377e-15 4.22893e-15 3.893e-15 0.000955024 8.85411 13.5319 13.8514 4.46874e-12 8.9081 13.409 13.541 13.0155 12.7136 12.7096 13.7098 10.7448 4.4238 1.64098 0 3.88396e-14 2.65868e-07 13.5961 12.5759 3.54122 1.05655 4.69138 1.2927 10.8419 4.01628 13.8398 13.7871 13.4012 13.3317 13.6826 0.0195178 0.0630126 1.99282 13.0855 13.6073 0.018372 0.100434 12.416 6.99535</DataArray>
</PointData>
<CellData/>
<Points>
 <DataArray type="Float64" Name="Points" NumberOfComponents="3" format="ascii">879.296 597.717 0 821.838 691.976 0 794.562 693.544 0 774.485 697.654 0 754.356 703.664 0 733.481 710.838 0 701.389 724.114 0 669.416 737.755 0 636.886 751.619 0 612.645 762.396 0 584.439 775.439 0 536.269 795.983 0 920.412 684.747 0 914.506 687.641 0 1536.7 1016.08 0 908.226 689.612 0 901.749 690.696 0 1540.47 1021.58 0 1513.13 1004.61 0 895.183 690.405 0 1456.13 976.634 0 1486.29 994.42 0 1360.12 900.53 0 888.384 690.199 0 1443.49 963.413 0 1405.39 936.528 0 881.585 689.993 0 1297.45 853.698 0 874.786 689.788 0 1431.88 958.779 0 1356.84 894.061 0 867.987 689.582 0 1471.5 982.339 0 1388.95 922.185 0 861.465 690.306 0 1340.24 886.484 0 934.042 682.28 0 935.362 685.3 0 855.398 692.59 0 927.807 684.997 0 921.617 687.816 0 848.599 692.43 0 841.801 692.27 0 929.127 688.017 0 835.002 692.109 0 828.203 691.949 0 915.503 690.794 0 908.993 692.821 0 902.091 693.986 0 895.05 693.704 0 815.003 692.085 0 887.966 693.49 0 808.17 692.217 0 801.366 692.88 0 879.568 693.235 0 870.829 692.971 0 861.898 693.05 0 787.786 694.392 0 854.727 695.868 0 781.134 696.024 0 847.621 695.702 0 840.398 695.534 0 832.176 695.343 0 767.808 699.291 0 823.978 695.243 0 816.582 695.362 0 761.15 701.345 0 808.952 695.485 0 801.803 696.155 0 794.928 696.823 0 747.501 706.02 0 740.832 708.311 0 788.211 697.683 0 781.637 699.296 0 775.059 700.91 0 725.988 713.485 0 768.459 702.53 0 717.873 716.991 0 709.068 720.796 0 755.101 706.896 0 761.85 704.592 0 747.82 709.398 0 740.732 711.834 0 691.606 728.298 0 733.673 714.26 0 680.234 733.144 0 726.157 717.007 0 659.963 741.784 0 718.081 720.496 0 709.844 724.056 0 651.632 745.334 0 644.427 748.405 0 699.843 728.371 0 681.01 736.398 0 664.593 743.394 0 628.703 755.106 0 652.545 748.529 0 641.175 753.375 0 631.416 757.534 0 604.307 766.252 0 622.803 761.336 0 616.128 764.424 0 609.315 767.576 0 595.395 770.374 0 602.096 770.916 0 593.877 774.719 0 586.455 778.152 0 575.883 779.228 0 578.85 781.518 0 570.377 785.272 0 567.765 782.824 0 501.371 814.288 0 503.689 809.716 0 467.009 828.905 0 438.633 837.396 0 431.109 840.597 0 1508.67 1006.12 0 1493.22 994.521 0 1398.61 926.232 0 1422.6 946.928 0 1320.04 868.907 0 973.271 656.776 0 932.722 679.25 0 926.487 681.967 0 799.319 685.868 0 561.181 776.797 0 1047.56 676.366 0 1046.92 674.363 0 1045.66 672.931 0 1041.8 671.26 0 914.345 567.739 0 879.582 682.378 0 583.977 766.935 0 1043.73 672.095 0 938.99 597.293 0 510.392 829.851 0 574.247 802.053 0 669.134 762.173 0 795.7 717.002 0 857.183 716.379 0 924.708 717.392 0 1063.07 739.103 0 1124.25 768.668 0 1142.08 779.142 0 939.604 711.337 0 939.404 713.429 0 939.277 715.522 0 1018.28 728.058 0 1187.87 763.235 0 1002.03 708.036 0 1009.61 699.412 0 974.346 643.626 0 1048.83 722.388 0 1101.75 741.264 0 1133.43 764.408 0 717.705 727.847 0 783.314 705.681 0 808.463 702.143 0 871.693 702.896 0 896.748 703.724 0 1008.69 720.289 0 1015.52 720.69 0 620.743 758.65 0 902.719 628.789 0 929.496 658.537 0 1009.08 713.7 0 1047.86 715.74 0 1080.11 719.541 0 1127.52 755.897 0</DataArray>
</Points>
<Verts>
 <DataArray type="Int64" Name="connectivity" format="ascii">0 1 2 3 4 5 6 7 8 9 10 11 12 13 14 15 16 17 18 19 20 21 22 23 24 25 26 27 28 29 30 31 32 33 34 35 36 37 38 39 40 41 42 43 44 45 46 47 48 49 50 51 52 53 54 55 56 57 58 59 60 61 62 63 64 65 66 67 68 69 70 71 72 73 74 75 76 77 78 79 80 81 82 83 84 85 86 87 88 89 90 91 92 93 94 95 96 97 98 99 100 101 102 103 104 105 106 107 108 109 110 111 112 113 114 115 116 117 118 119 120 121 122 123 124 125 126 127 128 129 130 131 132 133 134 135 136 137 138 139 140 141 142 143 144 145 146 147 148 149 150 151 152 153 154 155 156 157 158 159 160 161 162 163 164 165 166 167 168</DataArray>
 <DataArray type="Int64" Name="offsets" format="ascii">169</DataArray>
</Verts>
<Lines>
 <DataArray type="Int64" Name="connectivity" format="ascii"/>
 <DataArray type="Int64" Name="offsets" format="ascii"/>
</Lines>
<Stripes>
 <DataArray type="Int64" Name="connectivity" format="ascii"/>
 <DataArray type="Int64" Name="offsets" format="ascii"/>
</Stripes>
<Polys>
 <DataArray type="Int64" Name="connectivity" format="ascii"/>
 <DataArray type="Int64" Name="offsets" format="ascii"/>
</Polys>
</Piece>
</PolyData>
</VTKFile>