<?xml version="1.0" encoding="UTF-8" ?>
<VTKFile type="PolyData" version="0.1" order="LittleEndian">
<PolyData>
 <Piece NumberOfPoints="122" NumberOfVerts="1" NumberOfLines="0" NumberOfStrips="0" NumberOfPolys="0">
<PointData>
 <DataArray type="Float64" Name="speed" format="ascii">0.00608261 0.110317 0.680193 13.1471 0.0920678 0.00629071 0.0153039 0.154299 0.14609 0.0935034 0.0804306 0.157318 0.662371 0.370641 0.76557 1.09518 0.663414 0.344738 9.76515 13.6004 12.9023 13.042 13.1118 12.6973 13.0961 13.7943 9.7786 3.10328 7.04591 5.03276 4.61775 1.83355 2.06977e-16 0 12.8459 3.05339 7.03547 1.25539 0 7.89903 0 2.32099e-15 7.79547 0 5.0139e-14 6.25207e-12 2.08033 0 3.41559e-11 0 0 2.89955e-16 1.65121 6.24479 1.31627 1.08961e-10 0.117343 5.14046 2.94564e-09 1.56048 1.43135e-08 1.97433 0.500916 7.91282e-05 0.0013024 4.94723e-08 0.00397476 2.59277e-06 0.0194478 3.07128e-05 0.000392855 0.00132675 0.0182853 0.00192243 13.6275 11.8216 6.02274 4.67711 5.87314 13.5992 10.3704 12.1213 12.4969 13.6429 1.88005 11.2163 10.1505 13.6126 13.7407 12.8071 12.9702 13.7342 13.0724 6.96888 5.938 0 5.99544e-05 2.20606 2.94223 3.50294 12.8315 1.20665e-06 8.77864e-11 8.78727e-06 2.51783e-05 0.00022767 9.72462e-16 2.45652 3.3353e-11 5.27602e-10 0.000623472 0.0820634 13.0469 5.22067 6.31528e-16 1.38048e-08 1.179e-09 4.48912e-06 0.00561383 6.13719 10.4884 0</DataArray>
</PointData>
<CellData/>
<Points>
 <DataArray type="Float64" Name="Points" NumberOfComponents="3" format="ascii">808.165 692.218 0 773.961 697.783 0 752.61 704.264 0 578.568 778.039 0 808.321 695.521 0 801.351 692.882 0 794.52 693.548 0 801.47 696.187 0 787.67 694.421 0 780.845 696.095 0 794.521 696.863 0 787.629 697.826 0 767.206 699.439 0 780.812 699.499 0 773.674 701.25 0 765.849 703.229 0 759.875 701.78 0 757.974 705.914 0 748.759 709.075 0 704.661 722.7 0 677.572 734.279 0 650.714 745.726 0 613.771 765.515 0 571.347 784.842 0 537.157 795.616 0 499.961 811.302 0 457.544 832.931 0 436.96 841.688 0 988.646 653.162 0 975.214 652.083 0 938.832 676.676 0 922.013 683.983 0 914.506 687.641 0 915.503 690.794 0 1553.17 1024.08 0 963.895 659.581 0 991.627 651.196 0 928.958 684.495 0 908.226 689.612 0 953.729 667.987 0 901.749 690.696 0 895.183 690.405 0 944.108 677.978 0 921.617 687.816 0 888.384 690.199 0 881.585 689.993 0 931.034 687.186 0 908.995 692.821 0 874.786 689.788 0 922.83 690.889 0 902.095 693.986 0 916.508 693.943 0 888.247 696.794 0 907.733 696.507 0 894.957 693.701 0 867.987 689.582 0 876.32 693.137 0 877.138 696.46 0 861.465 690.306 0 868.1 692.888 0 855.398 692.59 0 858.028 695.944 0 849.027 695.735 0 841.725 695.565 0 834.923 695.407 0 848.599 692.43 0 828.12 695.249 0 841.801 692.27 0 821.909 695.276 0 835.002 692.109 0 828.203 691.949 0 821.837 691.976 0 815.118 695.386 0 815 692.085 0 840.082 682.067 0 553.09 780.424 0 965.083 651.904 0 953.417 658.1 0 946.117 663.243 0 803.774 684.642 0 493.918 807.152 0 1169.29 764.458 0 1153.06 754.176 0 900.624 717.031 0 886.887 534.433 0 1129.36 735.42 0 1116.01 725.234 0 534.772 819.237 0 588.072 796.034 0 737.254 735.787 0 810.887 716.715 0 921.616 717.346 0 996.334 725.129 0 1100.66 754.816 0 1123.83 768.424 0 1145.51 781.159 0 940.45 689.048 0 941.233 691.366 0 940.962 696.56 0 940.233 704.559 0 1014.53 727.558 0 950.487 707.696 0 943.69 707.402 0 957.285 707.983 0 964.082 708.272 0 978.155 638.228 0 1015.47 720.687 0 1006.26 719.904 0 1047.46 722.326 0 1054.25 722.635 0 1061.05 722.945 0 1067.27 723.01 0 1081.42 729.126 0 1130.92 762.541 0 1047.76 715.736 0 1047.91 712.436 0 1054.55 716.045 0 1054.7 712.745 0 1061.35 716.355 0 1063.05 713.125 0 1112.92 745.044 0 1138.63 768.275 0</DataArray>
</Points>
<Verts>
 <DataArray type="Int64" Name="connectivity" format="ascii">0 1 2 3 4 5 6 7 8 9 10 11 12 13 14 15 16 17 18 19 20 21 22 23 24 25 26 27 28 29 30 31 32 33 34 35 36 37 38 39 40 41 42 43 44 45 46 47 48 49 50 51 52 53 54 55 56 57 58 59 60 61 62 63 64 65 66 67 68 69 70 71 72 73 74 75 76 77 78 79 80 81 82 83 84 85 86 87 88 89 90 91 92 93 94 95 96 97 98 99 100 101 102 103 104 105 106 107 108 109 110 111 112 113 114 115 116 117 118 119 120 121</DataArray>
 <DataArray type="Int64" Name="offsets" format="ascii">122</DataArray>
</Verts>
<Lines>
 <DataArray type="Int64" Name="connectivity" format="ascii"/>
 <DataArray type="Int64" Name="offsets" format="ascii"/>
</Lines>
<Stripes>
 <DataArray type="Int64" Name="connectivity" format="ascii"/>
 <DataArray type="Int64" Name="offsets" format="ascii"/>
</Stripes>
<Polys>
 <DataArray type="Int64" Name="connectivity" format="ascii"/>
 <DataArray type="Int64" Name="offsets" format="ascii"/>
</Polys>
</Piece>
</PolyData>
</VTKFile>