<?xml version="1.0" encoding="UTF-8" ?>
<VTKFile type="PolyData" version="0.1" order="LittleEndian">
<PolyData>
 <Piece NumberOfPoints="195" NumberOfVerts="1" NumberOfLines="0" NumberOfStrips="0" NumberOfPolys="0">
<PointData>
 <DataArray type="Float64" Name="speed" format="ascii">12.6266 6.05873 0.306628 0.117983 0.000627759 1.12981e-11 1.5155e-09 1.57656e-08 1.56796e-06 3.80544e-05 0.000306034 0.00405191 0.0259495 0.215966 0.653252 12.7834 11.1912 6.40711 5.06778 3.27132 4.54894 0.0379697 0.756087 1.06384 0.813628 0.570031 0.906509 0.625532 2.14624 1.10435 13.5045 0.940912 13.8923 9.39658 1.38715 5.21804 5.33019 8.43338 3.38918 11.2116 1.14873 2.59471 1.56423 3.84764 1.08168 8.04522 0.788862 3.76619 8.71375 2.48695 0.79565 0.0116727 0.000677286 0.175039 0.895126 0.382613 7.88806 0.0797084 8.57709 0.0177724 7.68568 6.28597 0.0184706 0.00354031 4.84844 2.44051 1.24064 2.92614e-05 0.940328 1.24834 0.701961 2.21137e-10 0.966659 1.94499 0.993554 2.48122e-10 0.677878 1.82083 1.33518 5.5104e-09 0.69262 0.84238 1.15043e-08 1.91145 7.62147e-08 2.29798 3.91431e-07 0.610993 0.722278 0.157428 0.498868 6.8342e-06 0.283412 1.20154e-05 0.25392 1.35843e-05 0.154846 0.289653 7.87775e-05 0.839699 0.209878 7.63881e-05 0.325009 0.158616 0.00095168 0.378772 0.00252056 0.33545 0.20305 0.00753079 0.265681 0.935275 0.324116 0.034412 0.0474406 0.726586 0.607977 0.571367 0.0550382 0.835694 0.0718771 0.500436 0.953089 0.874856 0.314718 0.599806 0.355594 0.875017 0.264915 10.9674 12.8056 6.55925 1.14687 13.1844 13.0357 2.10435 3.79272e-05 0.000108846 0.000111269 12.9272 13.7894 4.02523 13.5657 6.06649 4.15412 13.153 13.1841 13.0967 13.4555 13.3604 13.0044 12.56 7.89487 0.999501 1.83817e-11 9.83199e-09 2.50385e-09 3.33525e-06 11.8926 1.7713 12.887 13.5808 13.3627 1.17917e-15 1.6356e-11 4.54449 1.1772e-15 12.4598 13.2298 13.8727 13.016 10.0482 5.71833 3.87517 1.68346 2.07349 12.5622 5.53352 1.41134e-06 13.6468 5.5057e-16 1.59932e-14 2.59095e-05 0.000640899 0.000893389 0.0439893 0.55658 5.1919 0.000659136 12.1577 8.65633 3.76797 2.1336 8.84343 0</DataArray>
</PointData>
<CellData/>
<Points>
 <DataArray type="Float64" Name="Points" NumberOfComponents="3" format="ascii">872.831 686.425 0 810.497 692.157 0 769.033 698.991 0 748.592 705.645 0 722.683 714.913 0 703.858 723.047 0 685.083 731.078 0 666.313 739.078 0 647.542 747.077 0 622.527 757.825 0 603.999 766.395 0 585.466 774.967 0 560.495 785.962 0 541.395 793.863 0 521.078 802.317 0 1085.26 715.183 0 1062.3 699.621 0 1034.95 674.359 0 1009.22 659.187 0 967.162 656.849 0 958.34 664.226 0 932.709 679.256 0 926.307 682.045 0 919.338 685.262 0 911.546 688.657 0 904.178 690.435 0 896.799 690.466 0 889.02 690.219 0 881.348 689.986 0 871.901 689.7 0 1101.85 724.591 0 862.863 689.426 0 1102.38 729.304 0 1048.7 685.547 0 992.302 651.656 0 855.446 692.591 0 979.465 650.221 0 1062.16 694.578 0 842.781 692.293 0 1075.92 708.1 0 1024.88 672.823 0 1017.57 668.914 0 831.493 692.027 0 822.896 691.959 0 1033.62 677.395 0 1049.74 682.334 0 1007.07 665.703 0 796.712 693.334 0 1006.61 661.402 0 785.56 694.938 0 776.45 697.172 0 927.803 684.998 0 934.042 682.28 0 921.586 687.83 0 915.226 690.914 0 762.031 701.044 0 906.484 693.39 0 755.136 703.397 0 890.837 693.577 0 741.998 707.911 0 874.729 693.089 0 858.58 695.957 0 735.509 710.14 0 729.026 712.368 0 844.075 695.62 0 832.217 695.344 0 823.157 695.256 0 716.408 717.625 0 815.02 695.387 0 807.276 695.623 0 798.997 696.427 0 697.597 725.745 0 791.156 697.19 0 783.593 698.816 0 773.906 701.193 0 691.34 728.411 0 766.253 703.09 0 757.945 705.924 0 748.827 709.052 0 678.826 733.744 0 740.879 711.783 0 733.589 714.289 0 672.57 736.411 0 725.621 717.238 0 660.056 741.744 0 716.322 721.257 0 653.799 744.411 0 707.677 724.993 0 700.471 728.104 0 693.381 731.126 0 686.928 733.876 0 641.285 749.744 0 680.036 736.813 0 635.029 752.411 0 673.509 739.595 0 628.772 755.077 0 666.915 742.405 0 660.487 745.144 0 616.351 760.682 0 647.418 750.714 0 653.915 747.945 0 610.175 763.538 0 640.285 753.754 0 633.658 756.579 0 597.822 769.252 0 626.957 759.466 0 591.646 772.109 0 620.274 762.506 0 613.647 765.572 0 579.296 777.717 0 607.036 768.63 0 600.293 771.75 0 592.86 775.189 0 573.052 780.482 0 566.801 783.251 0 585.773 778.451 0 578.593 781.632 0 571.785 784.648 0 554.173 788.577 0 564.67 787.8 0 547.801 791.213 0 557.51 790.766 0 550.52 793.659 0 543.269 796.66 0 534.874 796.56 0 536.035 799.653 0 528.164 799.336 0 529.106 802.521 0 521.81 805.594 0 510.877 806.657 0 484.271 821.562 0 447.366 837.261 0 432.164 840.148 0 906.292 680.234 0 615.288 753.389 0 429.358 836.313 0 1047.56 676.366 0 1046.92 674.363 0 1045.66 672.931 0 874.091 602.112 0 711.389 711.815 0 438.483 832.191 0 595.954 792.603 0 904.412 555.829 0 1132.71 773.636 0 447.527 857.217 0 514.961 827.861 0 615.938 783.904 0 730.88 738.256 0 801.64 716.89 0 920.148 717.324 0 1014.64 727.572 0 1097.69 753.072 0 940.13 688.101 0 941.122 691.037 0 941.276 693.088 0 941.087 695.18 0 939.604 711.337 0 958.152 720.035 0 1142.58 779.437 0 873.126 702.939 0 718.275 727.601 0 745.071 717.323 0 978.155 638.228 0 974.515 643.738 0 881.369 541.072 0 976.335 640.978 0 769.39 709.104 0 848.789 702.306 0 912.148 705.762 0 972.405 708.625 0 993.184 714.858 0 1035.81 721.785 0 1049.47 722.417 0 1060.8 722.933 0 1068.57 722.942 0 1088.24 734.744 0 1130.03 761.882 0 710.133 720.336 0 473.443 822.585 0 955.063 684.553 0 956.983 681.873 0 960.588 688.517 0 962.508 685.837 0 966.63 690.823 0 958.905 679.194 0 972.475 695.017 0 966.122 684.363 0 1008.17 713.646 0 973.594 691.756 0 1023.88 714.575 0 1009.43 710.419 0 1075.6 724.452 0 1119.15 749.675 0 1138.63 768.275 0</DataArray>
</Points>
<Verts>
 <DataArray type="Int64" Name="connectivity" format="ascii">0 1 2 3 4 5 6 7 8 9 10 11 12 13 14 15 16 17 18 19 20 21 22 23 24 25 26 27 28 29 30 31 32 33 34 35 36 37 38 39 40 41 42 43 44 45 46 47 48 49 50 51 52 53 54 55 56 57 58 59 60 61 62 63 64 65 66 67 68 69 70 71 72 73 74 75 76 77 78 79 80 81 82 83 84 85 86 87 88 89 90 91 92 93 94 95 96 97 98 99 100 101 102 103 104 105 106 107 108 109 110 111 112 113 114 115 116 117 118 119 120 121 122 123 124 125 126 127 128 129 130 131 132 133 134 135 136 137 138 139 140 141 142 143 144 145 146 147 148 149 150 151 152 153 154 155 156 157 158 159 160 161 162 163 164 165 166 167 168 169 170 171 172 173 174 175 176 177 178 179 180 181 182 183 184 185 186 187 188 189 190 191 192 193 194</DataArray>
 <DataArray type="Int64" Name="offsets" format="ascii">195</DataArray>
</Verts>
<Lines>
 <DataArray type="Int64" Name="connectivity" format="ascii"/>
 <DataArray type="Int64" Name="offsets" format="ascii"/>
</Lines>
<Stripes>
 <DataArray type="Int64" Name="connectivity" format="ascii"/>
 <DataArray type="Int64" Name="offsets" format="ascii"/>
</Stripes>
<Polys>
 <DataArray type="Int64" Name="connectivity" format="ascii"/>
 <DataArray type="Int64" Name="offsets" format="ascii"/>
</Polys>
</Piece>
</PolyData>
</VTKFile>