<?xml version="1.0" encoding="UTF-8" ?>
<VTKFile type="PolyData" version="0.1" order="LittleEndian">
<PolyData>
 <Piece NumberOfPoints="139" NumberOfVerts="1" NumberOfLines="0" NumberOfStrips="0" NumberOfPolys="0">
<PointData>
 <DataArray type="Float64" Name="speed" format="ascii">1.62942e-09 4.10816e-06 8.94212e-05 0.000936318 0.155473 0.231021 12.5058 5.97111e-06 1.13402e-13 1.45091e-11 0.000106098 2.17666e-10 1.15176e-09 0.00014994 0.00662789 3.70688e-08 0.0172315 0.0905416 0.0627343 5.74404e-07 1.03853 1.17335 8.67242e-06 1.38908 8.70892e-06 3.51371 2.34893 0.000352878 0.856166 1.10097 0.00110553 0.773159 0.33014 0.51499 0.00465387 0.417903 0.686409 0.0192199 0.0155993 0.197121 0.173572 0.239744 0.197899 0.116542 0.294586 0.319453 0.702895 0.196543 11.5822 13.2306 13.5463 13.2658 13.7499 12.6894 10.8581 4.49387 0 13.2479 12.8305 13.8085 7.36168e-16 0 0 0 2.78615e-16 0 0 0 12.7956 13.4175 12.7946 0 0 0 13.1781 0 0 1.14605e-15 3.04977e-16 2.70675e-13 0 1.02803e-10 7.56331e-16 1.77092e-08 8.85855e-16 5.52989e-08 1.53265e-16 4.02318e-15 5.36659e-16 3.39684e-06 8.88091e-14 12.7975 13.8811 3.41067 7.6092 6.32626 2.56014 1.09406 0.501434 0.0129592 13.3733 6.95293 0.006476 1.66941 0.113747 2.78775 13.7989 13.2816 13.6839 13.7075 13.2696 12.8755 9.15201 7.05462 1.02988 1.13096 0.586416 1.90706e-13 0.404547 6.02502 12.5745 0.0330537 0.261107 1.01093e-06 0 13.3459 12.9979 4.37418e-08 2.69425e-06 0.00163943 12.8761 4.85355 9.8889e-09 1.52419e-06 5.62779e-05 0.00495838 7.84206 10.5333 0</DataArray>
</PointData>
<CellData/>
<Points>
 <DataArray type="Float64" Name="Points" NumberOfComponents="3" format="ascii">815.003 692.085 0 794.564 693.543 0 774.515 697.647 0 754.877 703.486 0 728.943 712.397 0 709.458 720.627 0 585.529 774.938 0 874.686 693.088 0 841.801 692.27 0 835.002 692.109 0 867.887 692.882 0 828.203 691.949 0 821.838 691.976 0 861.373 693.604 0 855.323 695.881 0 808.17 692.217 0 848.504 695.723 0 841.555 695.561 0 834.608 695.4 0 801.367 692.88 0 827.687 695.24 0 820.347 695.301 0 787.793 694.391 0 811.908 695.437 0 781.154 696.019 0 803.685 695.972 0 792.355 697.073 0 767.876 699.275 0 782.402 699.108 0 774.676 701.004 0 761.347 701.278 0 766.573 702.992 0 758.998 705.565 0 751.917 707.99 0 748.408 705.708 0 744.8 710.436 0 737.658 712.891 0 741.932 707.933 0 735.444 710.163 0 730.567 715.328 0 722.445 715.016 0 715.97 717.814 0 723.974 717.95 0 717.47 720.76 0 711.08 723.522 0 704.271 726.464 0 702.914 723.455 0 697.69 729.289 0 690.418 728.804 0 646.182 747.657 0 615.931 760.876 0 586.853 777.968 0 557.696 790.689 0 515.16 804.835 0 464.285 826.481 0 438.956 837.258 0 432.399 843.628 0 1535.54 1015.51 0 1434.48 960.744 0 1544.35 1023.47 0 971.406 654.043 0 932.722 679.25 0 926.487 681.967 0 920.412 684.747 0 914.506 687.641 0 934.042 682.28 0 908.226 689.612 0 935.362 685.3 0 1516.58 1009.96 0 1450.77 968.908 0 1474.1 983.794 0 927.807 684.997 0 901.749 690.696 0 921.617 687.816 0 1499.82 998.138 0 895.183 690.405 0 929.127 688.017 0 888.384 690.199 0 915.503 690.794 0 908.995 692.821 0 922.83 690.889 0 902.095 693.986 0 881.585 689.993 0 895.083 693.705 0 874.786 689.788 0 888.284 693.499 0 867.987 689.582 0 861.465 690.306 0 855.398 692.59 0 881.485 693.293 0 848.599 692.43 0 911.159 667.549 0 678.694 725.959 0 442.847 830.22 0 1075.73 698.343 0 1068.88 689.741 0 1048.69 679.005 0 1043.08 671.813 0 1036.04 668.762 0 937.086 670.971 0 767.315 694.679 0 463.604 820.844 0 1038.01 669.617 0 1046.9 674.294 0 1040.11 670.525 0 890.455 539.092 0 477.015 844.38 0 569.709 804.028 0 675.387 759.751 0 791.523 717.081 0 880.492 716.729 0 990.882 724.402 0 1077.21 743.26 0 1113.21 762.184 0 1144.44 780.53 0 939.882 708.364 0 939.555 711.848 0 939.299 714.524 0 940.206 717.302 0 1122.97 767.918 0 1315.46 855.528 0 943.696 707.403 0 950.642 707.703 0 974.515 643.738 0 877.566 531.495 0 740.986 718.727 0 797.631 703.191 0 1008.68 720.289 0 1047.46 722.326 0 1054.26 722.635 0 1076.98 725.465 0 1130.82 762.469 0 1009.07 713.699 0 1047.76 715.736 0 1047.91 712.436 0 1054.56 716.045 0 1064.11 713.174 0 1113.91 745.782 0 1138.63 768.275 0</DataArray>
</Points>
<Verts>
 <DataArray type="Int64" Name="connectivity" format="ascii">0 1 2 3 4 5 6 7 8 9 10 11 12 13 14 15 16 17 18 19 20 21 22 23 24 25 26 27 28 29 30 31 32 33 34 35 36 37 38 39 40 41 42 43 44 45 46 47 48 49 50 51 52 53 54 55 56 57 58 59 60 61 62 63 64 65 66 67 68 69 70 71 72 73 74 75 76 77 78 79 80 81 82 83 84 85 86 87 88 89 90 91 92 93 94 95 96 97 98 99 100 101 102 103 104 105 106 107 108 109 110 111 112 113 114 115 116 117 118 119 120 121 122 123 124 125 126 127 128 129 130 131 132 133 134 135 136 137 138</DataArray>
 <DataArray type="Int64" Name="offsets" format="ascii">139</DataArray>
</Verts>
<Lines>
 <DataArray type="Int64" Name="connectivity" format="ascii"/>
 <DataArray type="Int64" Name="offsets" format="ascii"/>
</Lines>
<Stripes>
 <DataArray type="Int64" Name="connectivity" format="ascii"/>
 <DataArray type="Int64" Name="offsets" format="ascii"/>
</Stripes>
<Polys>
 <DataArray type="Int64" Name="connectivity" format="ascii"/>
 <DataArray type="Int64" Name="offsets" format="ascii"/>
</Polys>
</Piece>
</PolyData>
</VTKFile>