<?xml version="1.0" encoding="UTF-8" ?>
<VTKFile type="PolyData" version="0.1" order="LittleEndian">
<PolyData>
 <Piece NumberOfPoints="179" NumberOfVerts="1" NumberOfLines="0" NumberOfStrips="0" NumberOfPolys="0">
<PointData>
 <DataArray type="Float64" Name="speed" format="ascii">6.15013 0.634916 1.59861 0.0793621 0.000418703 7.46771e-11 1.87798e-09 2.18871e-07 1.34198e-05 0.000541569 0.00148198 0.00912388 0.323479 2.95261 7.76803 6.18369 6.43234 4.94486 0.0580179 1.29166 4.69221 2.22756 2.14464 0.94186 12.0772 9.10892 1.07304 2.83089 5.29395 1.45041 2.94052 4.62265 2.85035 3.30313 7.73814 4.23383 0.0828368 0.147417 1.13139 0.236849 0.553109 2.01922 0.0615036 13.4436 13.4104 3.03274 0.135149 0.928954 4.18764 12.0899 9.73997 2.66935 8.108 5.85942 0.578602 4.3699 2.95052 1.2436 0.0799935 0.00488222 1.27689 0.328039 0.620334 1.10813e-06 0.881155 3.60746e-13 1.80787e-12 0.623334 1.87688 0.776061 0.689345 1.6995e-10 0.699535 4.33366e-09 1.04587 8.86994e-09 1.02277 0.448058 3.97084e-08 4.2562e-08 0.935545 0.18031 0.346732 6.87862e-07 0.146146 0.131755 0.560107 3.29641e-05 0.463432 0.823258 0.419695 2.06502e-05 0.464433 0.31534 0.920706 0.000474259 0.597917 0.463447 0.00134234 0.525522 0.00207408 0.813793 0.00734131 1.18578 0.959468 0.293848 0.276475 0.0228319 0.305342 0.0548496 0.303272 0.077764 0.301488 2.98926 12.6012 13.4363 13.7828 6.54912 11.446 7.14192 2.74522 13.0282 13.6615 0 3.50065 8.42642 13.5588 12.5661 0.0282618 6.34237 13.2523 13.0416 13.0045 13.4842 13.4059 13.1709 9.3476 6.88676 2.81001 7.68879e-15 1.76239e-12 3.67686e-10 2.34958e-08 0 12.1575 0 13.3999 12.4765 8.26826e-16 1.12519e-06 13.7025 12.602 13.8874 13.4965 9.25459 9.52109 0.685092 4.08758 4.35633 1.68062 9.31868 13.1629 12.0737 3.14309e-06 1.75622e-12 0.0167631 6.00902e-05 0.169574 0.123118 12.7649 5.84644 4.79241 12.6389 3.23893 11.6166 7.70179 12.1111 3.83637 0</DataArray>
</PointData>
<CellData/>
<Points>
 <DataArray type="Float64" Name="Points" NumberOfComponents="3" format="ascii">919.152 670.177 0 807.177 692.314 0 779.916 696.322 0 755.115 703.404 0 735.486 710.148 0 710.133 720.336 0 691.34 728.411 0 666.313 739.078 0 647.542 747.077 0 628.771 755.077 0 610.171 763.54 0 591.623 772.119 0 566.284 783.479 0 435.463 838.745 0 1019.15 666.014 0 986.362 648.947 0 957.837 664.646 0 947.307 672.615 0 932.711 679.255 0 925.383 682.448 0 918.014 685.964 0 906.906 689.943 0 898.104 690.539 0 888.203 690.194 0 1072.96 710.13 0 1059.16 696.192 0 879.595 689.933 0 1027.74 674.317 0 970.43 654.599 0 871.405 689.685 0 862.019 689.725 0 1038.28 679.832 0 853.158 692.538 0 842.903 692.296 0 1052.28 693.349 0 1040.66 677.346 0 1013.04 665.873 0 1007.23 665.812 0 832.212 692.044 0 1018.95 669.685 0 824.302 691.937 0 816.512 692.061 0 999.078 652.276 0 995.547 657.859 0 973.124 656.859 0 799.308 693.081 0 934.014 682.292 0 788.132 694.308 0 927.491 685.134 0 916.498 690.36 0 894.801 693.697 0 771.53 698.379 0 877.06 693.159 0 861.376 693.6 0 762.224 700.978 0 848.286 695.718 0 836.034 695.433 0 826.017 695.234 0 748.497 705.677 0 741.956 707.925 0 818.216 695.336 0 809.895 695.47 0 802.72 696.066 0 729.022 712.37 0 794.852 696.83 0 722.682 714.913 0 716.408 717.625 0 777.918 700.209 0 786.635 698.07 0 770.425 702.047 0 763.134 704.155 0 703.858 723.047 0 755.59 706.727 0 697.597 725.745 0 747.512 709.504 0 685.083 731.078 0 740.066 712.063 0 732.569 714.64 0 678.826 733.744 0 672.57 736.411 0 725.582 717.255 0 718.347 720.382 0 711.901 723.167 0 660.056 741.744 0 705.265 726.035 0 698.866 728.788 0 692.404 731.542 0 641.285 749.744 0 685.472 734.496 0 678.518 737.46 0 671.487 740.456 0 635.029 752.411 0 664.638 743.375 0 657.543 746.399 0 650.51 749.397 0 622.526 757.826 0 643.373 752.438 0 636.526 755.356 0 616.349 760.683 0 629.822 758.213 0 603.991 766.398 0 622.756 761.358 0 597.808 769.258 0 615.654 764.643 0 608.22 768.083 0 600.811 771.51 0 594.227 774.557 0 585.424 774.986 0 587.585 777.629 0 579.236 777.743 0 580.995 780.568 0 572.945 780.529 0 574.388 783.495 0 567.113 786.718 0 552.707 789.183 0 512.822 805.829 0 482.505 822.313 0 448.601 836.736 0 1073.88 706.715 0 1056.78 688.527 0 1029.55 671.538 0 860.07 682.224 0 585.146 766.429 0 426.503 838.736 0 1046.73 673.765 0 1023.39 663.276 0 827.481 681.967 0 536.254 788.028 0 1046.92 707.073 0 1039.95 670.457 0 630.87 777.403 0 661.448 765.15 0 682.238 757.097 0 741.145 734.28 0 826.22 716.424 0 974.67 722.239 0 1054.05 736.451 0 1107.23 758.672 0 1139.63 777.704 0 940.45 689.048 0 941.122 691.037 0 941.276 693.088 0 941.087 695.18 0 939.7 710.34 0 1014.59 727.565 0 1145.51 781.159 0 1472.54 990.489 0 752.546 714.753 0 974.515 643.738 0 972.695 646.488 0 951.78 624.634 0 912.968 705.804 0 872.254 702.913 0 938.24 707.122 0 1001.55 718.819 0 1020.04 720.955 0 1048.15 722.357 0 1056.18 722.723 0 1066.64 723.034 0 1076.23 724.849 0 1113.56 749.633 0 781.886 706.032 0 803.607 702.613 0 653.799 744.411 0 955.063 684.553 0 960.605 688.529 0 956.983 681.873 0 966.82 690.959 0 959.042 679.292 0 977.464 698.596 0 963.031 686.213 0 1009.5 713.724 0 981.97 697.77 0 1042.9 715.512 0 1015.9 710.798 0 1037.27 711.943 0 1086.41 733.236 0 1134.67 761.219 0 1138.63 768.275 0</DataArray>
</Points>
<Verts>
 <DataArray type="Int64" Name="connectivity" format="ascii">0 1 2 3 4 5 6 7 8 9 10 11 12 13 14 15 16 17 18 19 20 21 22 23 24 25 26 27 28 29 30 31 32 33 34 35 36 37 38 39 40 41 42 43 44 45 46 47 48 49 50 51 52 53 54 55 56 57 58 59 60 61 62 63 64 65 66 67 68 69 70 71 72 73 74 75 76 77 78 79 80 81 82 83 84 85 86 87 88 89 90 91 92 93 94 95 96 97 98 99 100 101 102 103 104 105 106 107 108 109 110 111 112 113 114 115 116 117 118 119 120 121 122 123 124 125 126 127 128 129 130 131 132 133 134 135 136 137 138 139 140 141 142 143 144 145 146 147 148 149 150 151 152 153 154 155 156 157 158 159 160 161 162 163 164 165 166 167 168 169 170 171 172 173 174 175 176 177 178</DataArray>
 <DataArray type="Int64" Name="offsets" format="ascii">179</DataArray>
</Verts>
<Lines>
 <DataArray type="Int64" Name="connectivity" format="ascii"/>
 <DataArray type="Int64" Name="offsets" format="ascii"/>
</Lines>
<Stripes>
 <DataArray type="Int64" Name="connectivity" format="ascii"/>
 <DataArray type="Int64" Name="offsets" format="ascii"/>
</Stripes>
<Polys>
 <DataArray type="Int64" Name="connectivity" format="ascii"/>
 <DataArray type="Int64" Name="offsets" format="ascii"/>
</Polys>
</Piece>
</PolyData>
</VTKFile>