<?xml version="1.0" encoding="UTF-8" ?>
<VTKFile type="PolyData" version="0.1" order="LittleEndian">
<PolyData>
 <Piece NumberOfPoints="117" NumberOfVerts="1" NumberOfLines="0" NumberOfStrips="0" NumberOfPolys="0">
<PointData>
 <DataArray type="Float64" Name="speed" format="ascii">5.75898 13.6942 12.9112 1.03174 13.7884 12.7155 13.0174 13.5121 13.7208 12.6092 13.8499 0 12.8291 12.5121 0 13.8918 13.7716 4.44457e-12 12.6612 1.01232e-15 1.05008e-10 1.59882e-10 12.9713 13.7289 13.3451 2.009e-09 13.2827 2.7871e-08 12.4751 13.0358 2.13143e-07 0 1.30383e-06 0 0 7.17249e-06 4.25092e-05 1.52284e-14 1.82929e-14 0.00033521 5.51414e-13 9.10153e-11 8.49647e-08 0.00238637 1.30324e-07 0.0010553 3.93819e-05 0.000289306 0.00322305 0.0209728 0.0238164 0.0549109 0.00827924 0.132943 13.3504 6.77045 13.8716 12.7208 13.3483 13.3696 12.8201 12.8614 13.4185 12.5032 13.859 11.6357 5.18478 1.03502 13.5909 3.9449 10.0594 1.74914e-15 3.30887e-10 5.34663 13.3542 9.47093 2.64365e-06 9.84337e-16 12.7052 12.7534 13.4343 13.2341 13.3952 13.6814 13.0624 8.95019 5.59966 0.98383 5.59599 3.53276 9.55789 8.90631 7.57174 7.10058 3.58225e-08 5.97829 13.5769 0.0221782 10.4814 12.8361 12.4754 12.5911 13.1796 13.4214 13.4726 12.2639 5.25598 8.86185 13.1002 7.79775 13.4016 13.1364 12.4746 13.6734 12.9998 11.62 1.29335</DataArray>
</PointData>
<CellData/>
<Points>
 <DataArray type="Float64" Name="Points" NumberOfComponents="3" format="ascii">920.145 657.928 0 897.106 687.178 0 652.238 745.076 0 432.058 840.193 0 1380.5 915.52 0 1339.64 886.08 0 1277.19 840.054 0 1238.67 819.815 0 1150.71 768.341 0 1141.14 757.801 0 1279.23 845.403 0 932.722 679.25 0 1359.56 900.124 0 1329.42 875.223 0 926.487 681.967 0 1349.77 888.931 0 1260.28 828.669 0 920.412 684.747 0 1201.81 794.417 0 971.406 654.043 0 914.506 687.641 0 908.226 689.612 0 1298.34 854.298 0 1260.09 832.515 0 1218.15 807.804 0 901.749 690.696 0 1305.93 863.388 0 895.183 690.405 0 1183 783.409 0 1109.03 733.924 0 888.384 690.199 0 934.042 682.28 0 881.585 689.993 0 929.127 688.017 0 921.617 687.816 0 874.786 689.788 0 867.987 689.582 0 915.503 690.794 0 908.995 692.821 0 861.465 690.307 0 902.095 693.986 0 894.983 696.996 0 888.284 693.499 0 855.322 695.881 0 881.385 696.588 0 861.372 693.604 0 874.686 693.088 0 867.787 696.18 0 855.395 692.59 0 848.512 695.723 0 848.588 692.43 0 841.754 692.269 0 841.684 695.564 0 834.867 695.406 0 1375.96 907.986 0 834.08 692.088 0 816.456 692.062 0 786.166 694.79 0 748.435 705.699 0 688.341 729.689 0 660.686 745.06 0 623.915 757.197 0 591.158 772.334 0 547.219 795.025 0 511.355 806.454 0 475.714 821.618 0 443.599 835.283 0 433.351 843.223 0 641.487 742.055 0 439.935 831.535 0 907.409 658.681 0 1047.56 676.366 0 1045.66 672.931 0 880.263 520.86 0 852.433 682.164 0 497.91 805.348 0 1043.73 672.095 0 1046.92 674.363 0 1012.93 655.627 0 486.93 840.064 0 578.185 800.339 0 734.474 736.864 0 761.961 726.217 0 857.645 716.386 0 966.208 721.11 0 1071.72 741.647 0 1123.79 768.402 0 1144.09 780.32 0 939.603 716.698 0 1136.92 776.11 0 872.124 598.535 0 878.751 610.586 0 889.539 630.203 0 895.404 639.739 0 939.604 711.337 0 1010.43 697.379 0 1070.59 703.807 0 1006.94 704.859 0 1014.95 676.458 0 961.777 627.397 0 730.904 722.193 0 752.694 714.702 0 819.626 701.916 0 843.276 702.185 0 915.563 705.94 0 937.929 707.106 0 1008.06 720.252 0 1023.4 721.151 0 1074.04 723.473 0 1123.16 756.775 0 873.229 584.954 0 911.581 639.387 0 965.448 690.091 0 1017.16 714.177 0 1039.64 715.361 0 1107.59 741.084 0 1137.59 767.503 0</DataArray>
</Points>
<Verts>
 <DataArray type="Int64" Name="connectivity" format="ascii">0 1 2 3 4 5 6 7 8 9 10 11 12 13 14 15 16 17 18 19 20 21 22 23 24 25 26 27 28 29 30 31 32 33 34 35 36 37 38 39 40 41 42 43 44 45 46 47 48 49 50 51 52 53 54 55 56 57 58 59 60 61 62 63 64 65 66 67 68 69 70 71 72 73 74 75 76 77 78 79 80 81 82 83 84 85 86 87 88 89 90 91 92 93 94 95 96 97 98 99 100 101 102 103 104 105 106 107 108 109 110 111 112 113 114 115 116</DataArray>
 <DataArray type="Int64" Name="offsets" format="ascii">117</DataArray>
</Verts>
<Lines>
 <DataArray type="Int64" Name="connectivity" format="ascii"/>
 <DataArray type="Int64" Name="offsets" format="ascii"/>
</Lines>
<Stripes>
 <DataArray type="Int64" Name="connectivity" format="ascii"/>
 <DataArray type="Int64" Name="offsets" format="ascii"/>
</Stripes>
<Polys>
 <DataArray type="Int64" Name="connectivity" format="ascii"/>
 <DataArray type="Int64" Name="offsets" format="ascii"/>
</Polys>
</Piece>
</PolyData>
</VTKFile>