<?xml version="1.0" encoding="UTF-8" ?>
<VTKFile type="PolyData" version="0.1" order="LittleEndian">
<PolyData>
 <Piece NumberOfPoints="120" NumberOfVerts="1" NumberOfLines="0" NumberOfStrips="0" NumberOfPolys="0">
<PointData>
 <DataArray type="Float64" Name="speed" format="ascii">7.73614e-06 13.501 12.8871 13.3607 13.4351 13.7384 13.1749 12.9528 12.5478 13.4748 0 13.3514 13.0247 9.90825e-14 13.331 12.9322 1.48966e-08 12.7051 2.75274e-11 5.55672e-08 3.96472e-08 12.5159 13.2967 12.3785 7.44601e-06 13.4691 2.04032e-05 12.4279 6.12431 8.45392e-05 0 0.00195512 0 0 0.00140051 0.0302485 6.02071e-12 4.24387e-09 0.132173 1.45621e-08 4.64392e-07 0.000132703 0.197413 0.00193747 0.0901041 0.0241104 0.092508 0.452805 0.139851 0.270153 1.30468 6.24216 13.1093 13.3673 12.649 13.3428 12.6881 13.6514 12.9382 12.8319 13.4659 13.4219 10.1634 5.39108 0 13.079 13.3195 4.44912e-15 9.29116e-10 12.9153 13.7734 4.59193 0.259995 2.44644e-14 11.0274 13.4236 13.6051 13.8356 13.0865 12.7336 12.7584 10.9576 4.9062 0.736726 13.0402 8.14112 6.42003 5.47897 4.76996 4.78721 0.000119329 2.38117 9.30749 10.4825 1.57551 10.5294 13.3791 13.4632 13.5403 13.4526 13.4235 13.5447 9.44428 9.38275 0.34449 13.1505 4.04923 12.5754 12.4384 13.8665 12.8919 13.8073 13.5385 12.7457 13.3747 12.6784 12.7121 11.404 9.28374 0</DataArray>
</PointData>
<CellData/>
<Points>
 <DataArray type="Float64" Name="Points" NumberOfComponents="3" format="ascii">919.097 669.391 0 806.373 692.392 0 568.664 782.426 0 1305.12 862.836 0 1264.01 835.153 0 1198.75 792.627 0 1157.91 772.556 0 1079.78 711.997 0 1069.75 702.878 0 1200.1 797.24 0 932.722 679.25 0 1282.93 847.896 0 1252.62 824.157 0 926.487 681.967 0 1274.2 838.043 0 1178.65 780.864 0 920.412 684.747 0 1124.97 745.779 0 971.406 654.043 0 914.506 687.641 0 908.226 689.612 0 1219.76 804.924 0 1181.6 786.418 0 1140.01 761.071 0 901.749 690.696 0 1229.58 814.494 0 895.183 690.405 0 1107.57 730.391 0 1048.25 685.288 0 888.384 690.199 0 934.042 682.28 0 881.585 689.993 0 927.807 684.997 0 921.617 687.816 0 874.783 689.787 0 867.95 689.581 0 915.503 690.794 0 908.995 692.821 0 861.407 690.367 0 902.095 693.986 0 895.083 693.705 0 888.284 693.499 0 855.051 695.875 0 881.485 693.293 0 861.272 693.71 0 874.676 693.087 0 867.846 692.88 0 854.976 692.58 0 847.965 695.71 0 847.453 692.403 0 840.38 692.236 0 840.868 695.545 0 789.414 697.388 0 1300.8 855.952 0 750.743 704.906 0 724.73 714.029 0 698.686 725.28 0 663.311 740.357 0 602.207 767.224 0 576.328 782.635 0 541.479 793.828 0 505.038 809.141 0 465.42 829.581 0 441.252 839.862 0 431.109 840.597 0 555.53 779.322 0 847.5 682.125 0 1047.56 676.366 0 1045.66 672.931 0 834.187 520.118 0 761.18 696.368 0 450.306 826.851 0 1043.73 672.095 0 1046.92 674.363 0 946.134 605.859 0 486.339 840.322 0 570.919 803.502 0 665.533 763.567 0 823.055 716.484 0 855.176 716.349 0 951.739 719.179 0 1049.68 735.164 0 1118.73 765.43 0 1144.59 780.616 0 1017.68 727.977 0 890.314 631.612 0 900.031 646.256 0 908.107 656.444 0 914.737 662.261 0 921.35 666.93 0 939.604 711.337 0 985.889 651.316 0 1001.9 654.198 0 1001.23 661.729 0 978.093 646.118 0 903.103 561.607 0 727.739 723.515 0 784.96 705.276 0 817.719 701.947 0 841.468 702.145 0 911.088 705.706 0 936.696 707.042 0 1000 718.461 0 1023.51 721.158 0 1047.57 722.331 0 1068.84 722.912 0 1132.04 763.376 0 876.098 590.989 0 877.784 586.85 0 880.639 585.173 0 886.097 612.024 0 889.115 610.691 0 912.528 640.521 0 905.171 626.576 0 927.557 656.684 0 978.972 699.678 0 1025.72 714.683 0 1101.87 737.143 0 1118.65 749.307 0 1138.63 768.275 0</DataArray>
</Points>
<Verts>
 <DataArray type="Int64" Name="connectivity" format="ascii">0 1 2 3 4 5 6 7 8 9 10 11 12 13 14 15 16 17 18 19 20 21 22 23 24 25 26 27 28 29 30 31 32 33 34 35 36 37 38 39 40 41 42 43 44 45 46 47 48 49 50 51 52 53 54 55 56 57 58 59 60 61 62 63 64 65 66 67 68 69 70 71 72 73 74 75 76 77 78 79 80 81 82 83 84 85 86 87 88 89 90 91 92 93 94 95 96 97 98 99 100 101 102 103 104 105 106 107 108 109 110 111 112 113 114 115 116 117 118 119</DataArray>
 <DataArray type="Int64" Name="offsets" format="ascii">120</DataArray>
</Verts>
<Lines>
 <DataArray type="Int64" Name="connectivity" format="ascii"/>
 <DataArray type="Int64" Name="offsets" format="ascii"/>
</Lines>
<Stripes>
 <DataArray type="Int64" Name="connectivity" format="ascii"/>
 <DataArray type="Int64" Name="offsets" format="ascii"/>
</Stripes>
<Polys>
 <DataArray type="Int64" Name="connectivity" format="ascii"/>
 <DataArray type="Int64" Name="offsets" format="ascii"/>
</Polys>
</Piece>
</PolyData>
</VTKFile>