<?xml version="1.0" encoding="UTF-8" ?>
<VTKFile type="PolyData" version="0.1" order="LittleEndian">
<PolyData>
 <Piece NumberOfPoints="150" NumberOfVerts="1" NumberOfLines="0" NumberOfStrips="0" NumberOfPolys="0">
<PointData>
 <DataArray type="Float64" Name="speed" format="ascii">0.752691 0.035917 4.06976e-15 1.31012e-12 8.71328e-10 2.16733e-08 6.7582e-06 0.398577 6.18283 3.6717 3.85462 4.31053 1.78804 2.09986 0.958631 1.63085 0.666659 0.184745 1.5683 0.446402 0.490241 0.0204849 0.985523 1.31314 0.0036129 0.807378 0.000369233 1.22927 0.737471 4.67282e-15 0.971796 0.79932 2.82693e-14 0.681414 0.790133 0.977518 9.97179e-12 0.302812 0.0828395 4.13573e-11 5.13673e-10 0.192589 1.84554e-09 7.40038e-09 0.0725799 0.0441403 0.05542 0.160584 7.92178e-08 0.261245 2.53082e-07 2.75267e-06 0.22349 0.134629 1.32282 1.83262e-05 1.00976 9.01453e-05 1.29526 2.41757 11.6785 13.0839 13.8287 12.8185 13.1622 11.8895 6.44232 0.576968 7.24163e-08 0.815447 6.11319 5.99288 2.33983 1.90436e-05 3.55875 0.0129989 4.5108 2.61817 8.79499 0.50791 0.850406 1.49864 0.139733 4.62742 2.89907 13.6731 1.56708 7.59689 0.552531 13.6221 0.936801 1.2417 0.699017 5.02531 1.77898 13.3898 9.20764 12.9767 11.8665 7.75212 8.09177 12.9825 7.68237 0.000287766 12.5818 13.6995 12.9894 13.7802 13.5735 13.3152 13.116 13.1388 13.0813 6.65113 3.83828 1.63259e-05 1.7334e-07 1.44245e-05 0.000235548 0 8.29522 12.7246 13.1537 12.9024 8.80939e-16 0.367113 3.86915 12.7796 11.9527 11.3777 8.84006 7.66597 0.373577 1.71843 1.96959 1.15855 11.5917 3.03229 4.95781e-06 13.0374 11.8137 6.93399 10.1571 4.16218 5.04512 2.1235 2.53814 2.2565 10.7373 6.91694</DataArray>
</PointData>
<CellData/>
<Points>
 <DataArray type="Float64" Name="Points" NumberOfComponents="3" format="ascii">816.146 692.067 0 794.604 693.54 0 774.515 697.647 0 754.879 703.485 0 729.022 712.37 0 710.133 720.336 0 685.083 731.078 0 666.114 739.162 0 446.775 833.932 0 902.982 693.955 0 856.479 692.616 0 844.974 692.345 0 892.177 693.617 0 832.798 692.057 0 824.025 691.941 0 882.384 693.321 0 873.701 693.058 0 808.448 692.19 0 865.661 692.814 0 857.724 695.937 0 849.972 695.757 0 801.436 692.874 0 842.417 695.581 0 834.073 695.387 0 787.797 694.39 0 825.684 695.233 0 781.154 696.019 0 818.235 695.335 0 809.5 695.476 0 767.877 699.275 0 801.339 696.2 0 793.562 696.956 0 761.348 701.277 0 785.691 698.302 0 778.097 700.165 0 770.421 702.048 0 748.414 705.706 0 762.871 704.244 0 756.108 706.55 0 741.95 707.927 0 735.486 710.148 0 749.539 708.807 0 722.682 714.913 0 716.408 717.625 0 742.932 711.078 0 736.446 713.307 0 729.939 715.544 0 723.572 718.123 0 703.858 723.047 0 717.188 720.882 0 697.597 725.745 0 691.34 728.411 0 710.675 723.697 0 704.198 726.496 0 697.668 729.298 0 678.826 733.744 0 689.986 732.572 0 672.569 736.411 0 682.709 735.674 0 675.236 738.859 0 654.767 743.998 0 622.805 757.697 0 591.279 775.92 0 547.637 791.281 0 516.028 804.465 0 474.299 822.221 0 445.656 837.988 0 432.93 843.402 0 1044.4 679.306 0 1037.91 675.909 0 988.152 649.389 0 968.049 656.108 0 955.683 666.447 0 1042.87 682.236 0 948.593 671.827 0 1036.83 679.073 0 1025.25 669.288 0 936.863 677.5 0 1010.61 660.134 0 920.598 684.658 0 1030.79 675.913 0 913.414 688.096 0 926.933 681.772 0 1005.38 660.563 0 1015.26 667.466 0 958.923 668.041 0 905.595 690.2 0 931.02 683.597 0 897.6 690.511 0 986.146 652.173 0 889.583 690.236 0 881.019 689.976 0 872.235 689.71 0 915.1 690.969 0 864.175 689.466 0 702.178 715.8 0 490.887 808.521 0 1203.74 786.294 0 1168.72 764.097 0 1037.08 669.215 0 1018.38 660.529 0 774.272 692.764 0 470.532 817.715 0 1046.78 707.263 0 1184.29 773.965 0 1108.99 720.11 0 450.954 855.726 0 530.56 821.071 0 627.694 778.786 0 734.746 736.759 0 781.59 718.614 0 889.096 716.858 0 998.415 725.407 0 1102.07 755.644 0 1131.97 773.207 0 940.45 689.048 0 941.122 691.037 0 941.276 693.088 0 941.087 695.18 0 939.7 710.34 0 1084.32 745.352 0 1576.79 1036.47 0 849.823 702.329 0 881.291 703.187 0 974.515 643.738 0 972.417 646.304 0 881.077 535.636 0 909.48 569.126 0 904.508 705.363 0 983.74 709.831 0 1001 718.691 0 1018.88 720.887 0 1047.47 722.326 0 1055.26 722.681 0 1065.06 723.095 0 1073.17 723.021 0 1100.05 741.278 0 1134.76 765.398 0 955.063 684.553 0 978.981 699.685 0 984.024 699.246 0 1010.04 713.756 0 1001.89 709.563 0 1041.94 715.467 0 1039.93 712.067 0 1052.9 712.663 0 1053.22 715.985 0 1063.4 716.449 0 1078.69 718.602 0 1126.94 755.468 0</DataArray>
</Points>
<Verts>
 <DataArray type="Int64" Name="connectivity" format="ascii">0 1 2 3 4 5 6 7 8 9 10 11 12 13 14 15 16 17 18 19 20 21 22 23 24 25 26 27 28 29 30 31 32 33 34 35 36 37 38 39 40 41 42 43 44 45 46 47 48 49 50 51 52 53 54 55 56 57 58 59 60 61 62 63 64 65 66 67 68 69 70 71 72 73 74 75 76 77 78 79 80 81 82 83 84 85 86 87 88 89 90 91 92 93 94 95 96 97 98 99 100 101 102 103 104 105 106 107 108 109 110 111 112 113 114 115 116 117 118 119 120 121 122 123 124 125 126 127 128 129 130 131 132 133 134 135 136 137 138 139 140 141 142 143 144 145 146 147 148 149</DataArray>
 <DataArray type="Int64" Name="offsets" format="ascii">150</DataArray>
</Verts>
<Lines>
 <DataArray type="Int64" Name="connectivity" format="ascii"/>
 <DataArray type="Int64" Name="offsets" format="ascii"/>
</Lines>
<Stripes>
 <DataArray type="Int64" Name="connectivity" format="ascii"/>
 <DataArray type="Int64" Name="offsets" format="ascii"/>
</Stripes>
<Polys>
 <DataArray type="Int64" Name="connectivity" format="ascii"/>
 <DataArray type="Int64" Name="offsets" format="ascii"/>
</Polys>
</Piece>
</PolyData>
</VTKFile>