<?xml version="1.0" encoding="UTF-8" ?>
<VTKFile type="PolyData" version="0.1" order="LittleEndian">
<PolyData>
 <Piece NumberOfPoints="155" NumberOfVerts="1" NumberOfLines="0" NumberOfStrips="0" NumberOfPolys="0">
<PointData>
 <DataArray type="Float64" Name="speed" format="ascii">11.1468 4.23335 1.84538 0.0485715 3.68208e-05 1.98653e-10 3.29078e-09 2.2946e-05 12.4904 9.60102 0.485929 1.5274 0.00899236 1.28871 0.60486 2.17117 8.63489 4.34994 9.54866 6.4998 4.90343 6.89287 4.05484 4.02071 1.98438 3.01228 1.86838 0.696844 0.656468 0.21204 0.785576 1.05268 0.191094 0.93445 0.655741 0.702835 0.0197481 1.35028 1.36073 0.00650129 0.00145645 0.856944 9.81706e-06 3.11712e-12 1.07272 1.05439 0.371507 0.458919 4.64998e-10 0.297732 1.0728e-09 1.20736e-09 0.112797 0.157198 0.109368 1.95157e-08 0.0459657 2.3048e-07 0.0891352 0.341129 0.112667 0.000755334 0.457756 7.71129 13.8977 12.9441 12.6725 13.4668 9.95281 4.56135 0 9.70434 6.85166 4.56572 2.45713 1.18315 12.6831 0.365972 11.1869 5.5859 7.44877 4.71995 0.00107511 6.81511 2.58861 6.2295 4.37004 5.79039 3.52482 2.91652 0.611792 2.70841 3.6473 0.422891 1.2092 1.43201 5.65491 0.780354 12.7795 13.5832 0.95776 4.8192e-05 0.200766 13.4544 13.5311 1.06345e-08 13.4281 1.93325 12.7286 13.2777 12.9214 12.804 13.7548 11.9234 9.16913 5.22234 7.02265e-14 2.26179e-09 3.24698e-06 3.42059e-06 0 12.9116 0.757385 12.5119 12.5816 12.9227 9.38772e-16 1.97971e-06 13.1185 0.430725 13.6455 12.4425 13.2316 11.9531 12.6302 10.5235 4.52801 2.95631 1.42851 3.2037 2.7447 10.9924 6.6016 2.49457e-11 8.9295e-05 3.94791e-05 1.13125 0.203207 3.88007 4.42827 5.36951 11.9896 6.57114 7.93497 5.68739</DataArray>
</PointData>
<CellData/>
<Points>
 <DataArray type="Float64" Name="Points" NumberOfComponents="3" format="ascii">860.559 688.048 0 806.255 692.404 0 776.981 697.042 0 754.953 703.459 0 729.022 712.37 0 710.133 720.336 0 685.083 731.078 0 666.313 739.078 0 543.8 792.868 0 984.115 652.292 0 865.629 689.51 0 858.319 692.659 0 934.041 682.28 0 849.904 692.461 0 841.558 692.264 0 927.744 685.024 0 919.091 689.091 0 833.704 692.079 0 902.896 693.958 0 884.346 693.38 0 869.816 692.94 0 821.535 691.981 0 858.636 695.959 0 847.697 695.704 0 794.524 693.547 0 836.667 695.448 0 785.734 694.895 0 826.729 695.237 0 819.179 695.32 0 768.463 699.131 0 811.087 695.451 0 802.523 696.085 0 761.619 701.185 0 794.591 696.856 0 786.711 698.051 0 779.165 699.903 0 748.441 705.696 0 771.802 701.709 0 763.235 704.12 0 741.958 707.924 0 735.487 710.148 0 755.166 706.873 0 722.682 714.913 0 716.408 717.625 0 747.726 709.43 0 739.89 712.123 0 732.091 714.804 0 725.17 717.433 0 703.858 723.047 0 718.315 720.396 0 697.597 725.745 0 691.34 728.411 0 711.736 723.239 0 705.376 725.987 0 698.977 728.74 0 678.826 733.744 0 692.566 731.473 0 672.57 736.411 0 686.25 734.164 0 679.888 736.876 0 673.223 739.717 0 660.055 741.744 0 666.761 742.471 0 652.017 745.17 0 623.807 757.244 0 584.099 775.59 0 546.877 795.166 0 514.358 808.764 0 465.439 825.99 0 439.389 837.074 0 432.399 843.628 0 1072.17 705.388 0 1059.1 691.143 0 1020.1 670.323 0 1016.61 664.409 0 1008.52 658.71 0 1088.95 713.948 0 989.77 649.981 0 1066.19 703.875 0 1048.41 681.567 0 975.63 651.876 0 1037 675.433 0 932.722 679.25 0 1048.69 685.541 0 925.707 682.307 0 961.966 661.193 0 1026.59 669.988 0 1036.46 678.884 0 1010.4 663.999 0 917.134 686.43 0 1002.47 662.573 0 907.701 689.745 0 1029.3 678.854 0 898.168 690.543 0 890.517 690.264 0 882.141 690.01 0 998.058 655.576 0 873.417 689.746 0 817.056 681.885 0 592.06 763.438 0 427.231 838.114 0 1047.56 676.366 0 1046.88 674.239 0 893.595 682.488 0 557.21 778.563 0 1046.78 707.263 0 1207.79 788.862 0 887.526 535.376 0 517.101 826.93 0 623.282 780.707 0 669.232 762.135 0 772.83 722.007 0 878.536 716.699 0 1018.04 728.026 0 1082.09 744.697 0 1125.57 769.443 0 940.45 689.048 0 941.122 691.037 0 941.276 693.088 0 941.087 695.18 0 939.7 710.34 0 992.059 724.559 0 1144.86 780.776 0 1483.09 996.406 0 734.141 721.081 0 763.468 711.018 0 974.515 643.738 0 972.695 646.488 0 943.105 613.883 0 977.95 638.092 0 785.079 705.247 0 864.858 702.689 0 888.946 703.418 0 910.441 705.673 0 980.102 708.952 0 999.631 718.375 0 1039.95 721.977 0 1051.51 722.51 0 1062.65 723.018 0 1070.44 722.737 0 1135.46 765.915 0 1096.97 741.583 0 1127.59 755.956 0 955.063 684.553 0 960.588 688.517 0 956.983 681.873 0 962.702 685.977 0 958.98 679.248 0 967.345 691.335 0 972.217 686.707 0 1000.12 709.27 0 982.248 702.031 0 1029.91 714.911 0 1027.63 711.485 0 1044.43 712.275 0</DataArray>
</Points>
<Verts>
 <DataArray type="Int64" Name="connectivity" format="ascii">0 1 2 3 4 5 6 7 8 9 10 11 12 13 14 15 16 17 18 19 20 21 22 23 24 25 26 27 28 29 30 31 32 33 34 35 36 37 38 39 40 41 42 43 44 45 46 47 48 49 50 51 52 53 54 55 56 57 58 59 60 61 62 63 64 65 66 67 68 69 70 71 72 73 74 75 76 77 78 79 80 81 82 83 84 85 86 87 88 89 90 91 92 93 94 95 96 97 98 99 100 101 102 103 104 105 106 107 108 109 110 111 112 113 114 115 116 117 118 119 120 121 122 123 124 125 126 127 128 129 130 131 132 133 134 135 136 137 138 139 140 141 142 143 144 145 146 147 148 149 150 151 152 153 154</DataArray>
 <DataArray type="Int64" Name="offsets" format="ascii">155</DataArray>
</Verts>
<Lines>
 <DataArray type="Int64" Name="connectivity" format="ascii"/>
 <DataArray type="Int64" Name="offsets" format="ascii"/>
</Lines>
<Stripes>
 <DataArray type="Int64" Name="connectivity" format="ascii"/>
 <DataArray type="Int64" Name="offsets" format="ascii"/>
</Stripes>
<Polys>
 <DataArray type="Int64" Name="connectivity" format="ascii"/>
 <DataArray type="Int64" Name="offsets" format="ascii"/>
</Polys>
</Piece>
</PolyData>
</VTKFile>