<?xml version="1.0" encoding="UTF-8" ?>
<VTKFile type="PolyData" version="0.1" order="LittleEndian">
<PolyData>
 <Piece NumberOfPoints="133" NumberOfVerts="1" NumberOfLines="0" NumberOfStrips="0" NumberOfPolys="0">
<PointData>
 <DataArray type="Float64" Name="speed" format="ascii">0.00362388 1.7262e-05 0.000206292 0.00963652 13.2334 1.70015 2.85955e-08 4.07038e-08 1.29291 1.72157e-06 2.2886e-06 2.01447 1.32087 5.98802e-05 2.07006 0.41524 0.819844 0.000215441 1.60237 0.296543 0.00143267 0.109319 0.00226311 0.0257511 0.0663876 2.08228 13.0442 13.3521 13.4144 12.7081 12.4 12.5028 10.8718 6.95819 1.80642 1.19755e-05 0.00145609 8.22035 7.37762 1.33776 11.2702 0.0137172 2.31376e-08 7.3449 0.594221 0.105291 0.872671 0.991477 2.47992 0.454993 0.828196 0.032932 0.0543085 0 0.426018 13.5447 0.0512895 6.95835 8.01944 9.01938 0.217159 0.425305 0.547809 5.54034 1.32604 0.000568099 2.39586 0.0302739 0.19278 0.422837 0.317551 4.31616 0.501749 3.51734 0.789051 2.38724 0.645822 0.135872 0.473207 0.0409821 13.7091 9.26157 1.71466 5.31583 8.88639 13.281 13.6216 1.65629 13.2197 13.4909 13.0555 12.9675 13.2728 13.8459 13.387 13.2628 11.6128 7.00883 1.82019 8.24562e-16 9.80797e-09 5.72407e-06 2.34572e-06 0 7.4359 12.4675 13.0895 12.808 12.6622 9.61343e-16 4.00255 11.0664 9.05266 7.30918 8.45204 6.89331 4.62018 2.71725 0.607739 0.880923 10.6722 4.22033 12.5936 12.8498 9.61577 7.52323 4.99315 6.16376 2.62733 4.14934 2.66582 12.8026 9.86617</DataArray>
</PointData>
<CellData/>
<Points>
 <DataArray type="Float64" Name="Points" NumberOfComponents="3" format="ascii">808.174 692.217 0 774.515 697.647 0 754.879 703.485 0 735.473 710.153 0 536.085 796.059 0 825.204 695.231 0 801.367 692.88 0 794.564 693.543 0 815.777 695.375 0 787.793 694.391 0 781.154 696.019 0 806.408 695.707 0 797.66 696.557 0 767.877 699.275 0 789.479 697.372 0 780.391 699.602 0 772.362 701.572 0 761.348 701.277 0 764.077 703.833 0 756.015 706.582 0 748.413 705.706 0 749.325 708.881 0 741.946 707.928 0 742.809 711.12 0 736.338 713.344 0 728.742 712.466 0 701.821 723.927 0 657.729 742.736 0 622.24 757.958 0 582.087 776.48 0 535.705 799.79 0 508.458 811.274 0 471.891 823.245 0 445.914 834.298 0 434.061 842.921 0 1042.87 682.236 0 1036.84 679.082 0 1001.09 653.646 0 967.218 656.803 0 938.641 676.756 0 1001.93 662.201 0 1038.36 676.145 0 1044.4 679.306 0 984.996 649.019 0 930.56 680.192 0 1024.72 672.738 0 923.532 683.257 0 916.277 686.862 0 1012.14 665.232 0 1018.32 669.335 0 908.989 689.418 0 901.707 690.697 0 1030.81 675.926 0 911.324 692.17 0 894.559 690.386 0 1031.72 680.12 0 904.545 693.721 0 950.964 670.16 0 927.812 684.995 0 943.4 678.296 0 897.376 693.799 0 886.898 690.154 0 890.189 693.557 0 914.527 694.659 0 878.534 689.901 0 882.842 693.335 0 869.872 689.639 0 876.036 693.128 0 869.194 692.921 0 862.119 692.817 0 855.795 695.892 0 860.752 691.053 0 848.611 695.725 0 849.251 692.445 0 841.044 695.549 0 838.348 692.188 0 829.103 691.97 0 822.069 691.972 0 833.19 695.367 0 815.048 692.085 0 763.718 695.669 0 506.853 801.309 0 1047.27 675.465 0 1043.28 671.901 0 1030.34 666.292 0 859.76 575.548 0 698.18 717.53 0 430.006 836.02 0 682.846 756.862 0 980.515 632.726 0 528.781 821.845 0 600.081 790.807 0 702.057 749.42 0 767.655 724.011 0 915.193 717.249 0 947.645 718.633 0 1049.36 735.072 0 1109.96 760.279 0 1143.38 779.903 0 940.45 689.048 0 941.122 691.037 0 941.276 693.088 0 941.087 695.18 0 939.7 710.34 0 1099.72 754.265 0 861.023 702.579 0 835.523 702.014 0 886.737 703.352 0 912.451 705.777 0 978.155 638.228 0 974.515 643.738 0 973.118 708.655 0 934.374 706.921 0 994.352 715.554 0 1022.55 721.101 0 1038.31 721.901 0 1053.46 722.599 0 1065.29 723.086 0 1073.53 723.154 0 1079.83 727.81 0 1090.01 736.205 0 1133.39 764.38 0 977.32 698.493 0 970.378 689.446 0 1000.43 712.721 0 1001.35 709.496 0 1040.45 715.398 0 1034.83 711.83 0 1052.27 715.941 0 1048.49 712.462 0 1059.47 712.962 0 1067.92 716.49 0 1118.78 749.404 0</DataArray>
</Points>
<Verts>
 <DataArray type="Int64" Name="connectivity" format="ascii">0 1 2 3 4 5 6 7 8 9 10 11 12 13 14 15 16 17 18 19 20 21 22 23 24 25 26 27 28 29 30 31 32 33 34 35 36 37 38 39 40 41 42 43 44 45 46 47 48 49 50 51 52 53 54 55 56 57 58 59 60 61 62 63 64 65 66 67 68 69 70 71 72 73 74 75 76 77 78 79 80 81 82 83 84 85 86 87 88 89 90 91 92 93 94 95 96 97 98 99 100 101 102 103 104 105 106 107 108 109 110 111 112 113 114 115 116 117 118 119 120 121 122 123 124 125 126 127 128 129 130 131 132</DataArray>
 <DataArray type="Int64" Name="offsets" format="ascii">133</DataArray>
</Verts>
<Lines>
 <DataArray type="Int64" Name="connectivity" format="ascii"/>
 <DataArray type="Int64" Name="offsets" format="ascii"/>
</Lines>
<Stripes>
 <DataArray type="Int64" Name="connectivity" format="ascii"/>
 <DataArray type="Int64" Name="offsets" format="ascii"/>
</Stripes>
<Polys>
 <DataArray type="Int64" Name="connectivity" format="ascii"/>
 <DataArray type="Int64" Name="offsets" format="ascii"/>
</Polys>
</Piece>
</PolyData>
</VTKFile>