<?xml version="1.0" encoding="UTF-8" ?>
<VTKFile type="PolyData" version="0.1" order="LittleEndian">
<PolyData>
 <Piece NumberOfPoints="104" NumberOfVerts="1" NumberOfLines="0" NumberOfStrips="0" NumberOfPolys="0">
<PointData>
 <DataArray type="Float64" Name="speed" format="ascii">13.8836 13.7291 8.95251 8.11769 9.52249 0 2.13125 0.298272 3.18727 7.59145 0.987483 11.9504 5.52136 1.26535 2.44034 1.06496 1.05899 1.48978 3.95458 4.09596 1.87258 3.69159 5.77478 1.10115 2.02158 9.64662 0.808794 0.189553 0.644905 0.776234 0.296075 0.205753 0.702317 3.70033 0.045733 0.0100446 1.73987 1.13369 0.00400165 0.932166 13.1665 13.2244 13.2717 13.0761 13.0345 13.2281 13.8501 13.5986 12.785 10.7526 5.0391 0 0.0764855 13.7595 13.8102 4.54535 13.4873 10.8299 6.80861 5.44599 13.7097 13.2025 12.5088 9.88318 12.2319 12.6996 13.0199 11.3901 11.2306 11.2995 12.8295 11.2204 6.83208 1.9992 3.13354e-06 0.000154758 0.00872455 0.069305 2.12477 3.06756 1.03529 2.17027 6.16453e-08 7.18913e-16 4.50589e-11 8.64731 2.21203 2.95972 0.0818548 1.71781 2.65694 0.448489 10.1015 2.20786 10.8704 1.62317 2.08522 2.0454e-15 1.12388e-10 6.20439e-06 0.0857687 8.85875 13.4637 6.02278</DataArray>
</PointData>
<CellData/>
<Points>
 <DataArray type="Float64" Name="Points" NumberOfComponents="3" format="ascii">593.058 771.455 0 869.671 577.468 0 819.261 692.017 0 1040.53 681.012 0 1006.17 661.1 0 971.895 653.765 0 952.968 668.585 0 945.799 673.539 0 939.452 676.417 0 960.55 666.68 0 918.49 685.711 0 1022.64 671.65 0 992.773 651.976 0 911.371 688.71 0 978.148 654.23 0 959.557 663.208 0 903.164 690.596 0 906.322 693.422 0 929.158 680.803 0 894.136 690.374 0 881.92 690.004 0 916.646 690.296 0 948.54 675.742 0 897.401 693.801 0 872.85 689.729 0 924.339 686.529 0 863.71 689.452 0 889.423 693.534 0 882.238 693.316 0 856.68 692.621 0 874.4 693.079 0 848.927 692.438 0 866.599 692.843 0 859.805 695.257 0 841.858 692.271 0 835.012 692.11 0 847.958 695.71 0 839.154 695.505 0 828.199 691.949 0 830.426 695.302 0 789.058 694.08 0 754.941 703.464 0 732.744 711.091 0 701.194 727.794 0 644.964 748.176 0 612.284 766.203 0 574.37 783.503 0 533.37 797.182 0 495.114 813.364 0 469.936 827.66 0 441.87 839.599 0 431.109 840.597 0 1044.35 679.279 0 903.178 650.688 0 644.407 740.792 0 441.644 830.764 0 1198.02 782.668 0 1145.91 749.508 0 1007.26 650.517 0 998.876 642.971 0 888.266 682.446 0 614.682 753.651 0 1168.61 764.031 0 1132.5 737.936 0 967.039 626.071 0 467.277 848.62 0 576.271 801.172 0 824.93 716.449 0 840.885 716.147 0 859.662 716.416 0 952.438 719.272 0 1043.11 733.232 0 1110.09 760.354 0 1141.41 778.748 0 940.45 689.048 0 941.122 691.037 0 941.274 693.11 0 941.081 695.245 0 940.794 698.424 0 1135.31 775.165 0 949.452 707.655 0 940.445 707.235 0 957.285 707.983 0 974.515 643.738 0 978.155 638.228 0 891.451 552.963 0 1045.25 722.223 0 1044.78 718.904 0 1054.32 722.638 0 1061.59 722.969 0 1070.08 722.777 0 1077.37 725.78 0 1110.33 747.236 0 1136.86 766.957 0 958.942 687.336 0 1046.14 715.661 0 1045.83 712.34 0 1054.55 716.045 0 1054.7 712.745 0 1061.35 716.355 0 1061.51 713.056 0 1073.11 716.396 0 1092.49 729.701 0 1130.26 757.938 0</DataArray>
</Points>
<Verts>
 <DataArray type="Int64" Name="connectivity" format="ascii">0 1 2 3 4 5 6 7 8 9 10 11 12 13 14 15 16 17 18 19 20 21 22 23 24 25 26 27 28 29 30 31 32 33 34 35 36 37 38 39 40 41 42 43 44 45 46 47 48 49 50 51 52 53 54 55 56 57 58 59 60 61 62 63 64 65 66 67 68 69 70 71 72 73 74 75 76 77 78 79 80 81 82 83 84 85 86 87 88 89 90 91 92 93 94 95 96 97 98 99 100 101 102 103</DataArray>
 <DataArray type="Int64" Name="offsets" format="ascii">104</DataArray>
</Verts>
<Lines>
 <DataArray type="Int64" Name="connectivity" format="ascii"/>
 <DataArray type="Int64" Name="offsets" format="ascii"/>
</Lines>
<Stripes>
 <DataArray type="Int64" Name="connectivity" format="ascii"/>
 <DataArray type="Int64" Name="offsets" format="ascii"/>
</Stripes>
<Polys>
 <DataArray type="Int64" Name="connectivity" format="ascii"/>
 <DataArray type="Int64" Name="offsets" format="ascii"/>
</Polys>
</Piece>
</PolyData>
</VTKFile>