<?xml version="1.0" encoding="UTF-8" ?>
<VTKFile type="PolyData" version="0.1" order="LittleEndian">
<PolyData>
 <Piece NumberOfPoints="174" NumberOfVerts="1" NumberOfLines="0" NumberOfStrips="0" NumberOfPolys="0">
<PointData>
 <DataArray type="Float64" Name="speed" format="ascii">8.45728 2.15862 0.700869 2.58221 4.812 0.227905 0.0122602 0.000705306 3.3671e-07 0.00220864 13.6978 3.96088e-09 1.20942e-07 13.2008 4.05412e-06 5.02022e-06 13.4958 13.4196 0.000323409 13.2391 13.8956 12.4321 0.0012413 12.5628 13.2542 0.00442181 9.33866 0.00474786 13.5582 12.6629 0.0816798 13.2288 13.6693 0.136633 13.1282 0 1.04474e-12 1.31624 8.00007e-12 5.23149e-10 0.701179 0.920476 2.86954e-09 5.21652 4.58725 1.14913e-06 5.99174e-06 2.67652e-05 0.00013497 1.09884 0.00023696 0.58469 1.29314 0.00090931 0.0159729 0.23063 3.14385 0.570468 1.27045 0.598391 7.09163 10.8303 1.05356 8.84268 5.23786 1.63861 3.95087 2.02722 0.844085 4.14763 1.55553 0.317654 0.537023 0.575423 0.974018 0.327727 0.147181 0.0260841 0.567139 1.54353 1.1853 0.956674 0.00310514 0.534572 0.00134075 0.851475 6.45522e-05 0.633425 0.327522 4.81267e-05 7.36217e-06 2.19393 0.398089 1.2954 1.37321e-07 0.824155 0.683695 0.388442 0.0228193 0.472771 1.34129 10.1268 13.5022 13.7647 12.1755 5.54791 0 13.2331 13.658 12.9882 13.2195 12.226 1.3259e-07 1.85136e-14 1.13673e-11 13.5362 8.95797 1.15472e-13 1.0484e-12 1.65335e-10 11.0309 13.7877 12.3438 0 12.9708 0.0276804 13.6052 12.9281 13.5634 12.7671 13.6801 12.883 12.8719 10.6911 5.4427 1.31315 3.47697 3.2787 5.10735 5.53056 1.85894e-14 8.01135e-08 10.9514 13.0048 5.18646 4.36784 2.12066 12.6748 12.9301 13.7834 13.7912 13.1209 13.5315 10.2782 8.54086 1.08704 2.01017 5.13346 11.4395 4.44454 8.04093e-05 13.8061 13.0932 12.4388 12.5917 13.4655 13.8936 13.8327 12.8495 13.7086 11.9263 13.3054 12.7963 5.60014</DataArray>
</PointData>
<CellData/>
<Points>
 <DataArray type="Float64" Name="Points" NumberOfComponents="3" format="ascii">847.343 689.102 0 803.19 692.703 0 768.927 699.017 0 743.482 707.401 0 716.515 717.578 0 686.667 730.403 0 660.075 741.736 0 641.286 749.744 0 616.351 760.682 0 597.823 769.251 0 495.366 813.257 0 920.412 684.747 0 914.506 687.641 0 1278.15 840.702 0 908.226 689.612 0 901.749 690.696 0 1277.41 844.18 0 1258.36 827.518 0 895.183 690.405 0 1195.18 794.364 0 1228.48 813.847 0 1098.45 726.062 0 888.384 690.199 0 1184.26 784.15 0 1141.42 762.118 0 881.583 689.993 0 1040.85 681.178 0 874.78 689.787 0 1174.41 782.209 0 1096.08 719.825 0 867.928 689.58 0 1216.4 802.959 0 1120.99 746.93 0 861.317 690.461 0 1079.43 711.918 0 934.042 682.28 0 927.807 684.997 0 855.025 692.582 0 921.617 687.816 0 915.503 690.794 0 846.648 692.384 0 838.935 692.202 0 908.995 692.821 0 830.858 692.012 0 815.618 692.075 0 902.095 693.986 0 895.083 693.705 0 888.284 693.499 0 881.485 693.293 0 793.556 693.642 0 874.686 693.088 0 785.072 695.058 0 777.499 696.915 0 867.887 692.882 0 861.369 693.608 0 855.222 695.879 0 761.528 701.216 0 847.783 695.706 0 751.18 704.755 0 839.863 695.522 0 831.524 695.328 0 815.02 695.387 0 733.569 710.807 0 796.747 696.646 0 776.618 700.528 0 725.683 713.617 0 763.267 704.109 0 752.292 707.861 0 743.371 710.927 0 704.923 722.587 0 694.461 727.081 0 735.999 713.461 0 729.285 715.768 0 722.402 718.629 0 679.937 733.271 0 715.518 721.604 0 672.773 736.324 0 666.357 739.059 0 700.43 728.121 0 708.718 724.543 0 692.425 731.533 0 683.909 735.162 0 653.805 744.408 0 676.623 738.268 0 647.544 747.076 0 669.217 741.424 0 635.029 752.41 0 661.735 744.613 0 654.704 747.609 0 628.772 755.077 0 622.527 757.825 0 647.446 750.702 0 638.63 754.46 0 631.98 757.294 0 610.175 763.538 0 624.389 760.603 0 617.416 763.828 0 610.415 767.067 0 591.641 772.111 0 603.693 770.177 0 596.962 773.291 0 580.915 776.999 0 540.175 794.367 0 515.227 808.394 0 478.025 824.219 0 444.017 835.105 0 431.109 840.597 0 1250.32 826.628 0 1235.61 814.203 0 1136.84 754.605 0 1162.76 771.566 0 1060.25 692.447 0 971.406 654.043 0 932.722 679.25 0 926.487 681.967 0 791.545 688.009 0 512.343 798.829 0 1047.56 676.366 0 1046.92 674.363 0 1045.66 672.931 0 933.924 591.218 0 885.28 622.458 0 578.703 769.216 0 426.503 838.736 0 457.393 852.923 0 1043.71 672.086 0 473.705 845.822 0 571.271 803.348 0 593.967 793.468 0 659.363 765.957 0 806.223 716.803 0 876.779 716.673 0 978.681 722.774 0 1074.64 742.506 0 1121.45 767.023 0 1143.62 780.045 0 903.897 651.7 0 908.06 656.413 0 917.81 664.896 0 926.502 669.458 0 939.604 711.337 0 939.404 713.429 0 1054.29 736.522 0 638.492 761.701 0 987.149 644.217 0 981.727 648.541 0 971.392 641.672 0 730.106 722.493 0 758.619 712.668 0 819.627 701.916 0 876.469 703.041 0 915.514 705.937 0 936.727 707.043 0 1000.77 718.639 0 1022.53 721.101 0 1047.76 722.339 0 1056.96 722.759 0 1066.27 723.048 0 1101.32 741.122 0 1133.5 764.46 0 603.999 766.395 0 878.582 588.529 0 883.817 607.227 0 877.611 578.803 0 896.359 626.222 0 890.693 614.012 0 923.787 653.101 0 887.479 599.564 0 905.783 627.308 0 941.055 669.904 0 989.694 707.575 0 1018.74 714.271 0 1075.27 716.863 0 1129.81 757.603 0</DataArray>
</Points>
<Verts>
 <DataArray type="Int64" Name="connectivity" format="ascii">0 1 2 3 4 5 6 7 8 9 10 11 12 13 14 15 16 17 18 19 20 21 22 23 24 25 26 27 28 29 30 31 32 33 34 35 36 37 38 39 40 41 42 43 44 45 46 47 48 49 50 51 52 53 54 55 56 57 58 59 60 61 62 63 64 65 66 67 68 69 70 71 72 73 74 75 76 77 78 79 80 81 82 83 84 85 86 87 88 89 90 91 92 93 94 95 96 97 98 99 100 101 102 103 104 105 106 107 108 109 110 111 112 113 114 115 116 117 118 119 120 121 122 123 124 125 126 127 128 129 130 131 132 133 134 135 136 137 138 139 140 141 142 143 144 145 146 147 148 149 150 151 152 153 154 155 156 157 158 159 160 161 162 163 164 165 166 167 168 169 170 171 172 173</DataArray>
 <DataArray type="Int64" Name="offsets" format="ascii">174</DataArray>
</Verts>
<Lines>
 <DataArray type="Int64" Name="connectivity" format="ascii"/>
 <DataArray type="Int64" Name="offsets" format="ascii"/>
</Lines>
<Stripes>
 <DataArray type="Int64" Name="connectivity" format="ascii"/>
 <DataArray type="Int64" Name="offsets" format="ascii"/>
</Stripes>
<Polys>
 <DataArray type="Int64" Name="connectivity" format="ascii"/>
 <DataArray type="Int64" Name="offsets" format="ascii"/>
</Polys>
</Piece>
</PolyData>
</VTKFile>