<?xml version="1.0" encoding="UTF-8" ?>
<VTKFile type="PolyData" version="0.1" order="LittleEndian">
<PolyData>
 <Piece NumberOfPoints="104" NumberOfVerts="1" NumberOfLines="0" NumberOfStrips="0" NumberOfPolys="0">
<PointData>
 <DataArray type="Float64" Name="speed" format="ascii">12.5831 13.0877 6.42552 13.0704 13.2633 0 0 13.4406 0 12.9802 0 13.7006 12.9982 2.502e-16 12.5751 12.5989 0 12.1461 4.38688e-10 12.9385 13.8947 2.86855e-16 12.9361 12.9438 0 6.4871e-06 13.5125 9.14535e-15 1.49756e-12 8.45721e-12 4.01234e-14 0.0937974 4.99826e-08 5.25891e-12 1.9315e-09 0.00130094 0.269947 13.0319 1.1394 2.97208e-06 0.460193 0.00110921 1.0308 1.72437 12.9771 13.2335 12.4153 12.9277 12.6197 13.2461 13.8762 13.6506 13.8017 13.142 13.6031 9.74672 1.0989 12.553 1.08203e-15 13.4731 13.0484 13.5547 10.7635 1.82194e-15 2.44449e-15 3.90524e-16 0.000237878 1.42155e-09 13.4162 9.5334 3.62413e-13 7.23473 12.8879 12.7641 12.8007 13.8703 13.0102 12.9645 9.72128 5.81325 1.06194 0 4.23082e-14 5.33607e-05 11.6476 2.19169e-08 3.14693e-10 5.09113e-07 2.86254e-07 12.496 13.779 12.5601 12.8937 12.6991 8.26311 9.14694 11.2858 13.0287 13.6628 13.721 7.59098 13.6403 10.9948 2.95512</DataArray>
</PointData>
<CellData/>
<Points>
 <DataArray type="Float64" Name="Points" NumberOfComponents="3" format="ascii">914.376 684.326 0 662.621 740.651 0 444.445 834.923 0 1504.67 1004.17 0 1524.87 1010.32 0 965.777 658.007 0 932.722 679.25 0 1458.74 978.36 0 926.487 681.967 0 1445.49 964.928 0 920.412 684.747 0 1391.76 924.635 0 1427.4 955.259 0 914.506 687.641 0 1408.16 934.558 0 1385.6 915.236 0 908.226 689.612 0 1410.72 941.174 0 921.526 687.859 0 1340.43 882.64 0 1283.48 848.266 0 901.749 690.696 0 1370.78 908.299 0 1346.26 890.543 0 934.042 682.28 0 908.896 692.846 0 1317.09 866.919 0 895.183 690.405 0 935.362 685.3 0 927.715 685.036 0 888.384 690.199 0 894.979 693.702 0 915.411 690.834 0 881.585 689.993 0 874.786 689.788 0 901.99 693.99 0 888.053 693.492 0 1528.31 1015.67 0 880.578 693.266 0 867.987 689.582 0 872.201 693.012 0 861.464 690.307 0 864.596 692.782 0 855.193 695.878 0 828.522 691.957 0 785.382 694.982 0 749.896 705.196 0 705.477 722.347 0 1284.4 844.908 0 663.914 743.684 0 629.442 754.792 0 598.483 772.588 0 567.022 783.153 0 522.984 805.095 0 487.557 816.58 0 458.897 832.356 0 432.12 840.167 0 1478.39 989.988 0 971.406 654.043 0 1498.17 997.297 0 1464.02 977.895 0 796.505 686.643 0 539.68 786.481 0 1047.56 676.366 0 1046.92 674.363 0 1045.66 672.931 0 1041.8 671.259 0 937.093 670.973 0 853.544 682.173 0 504.884 802.198 0 1043.73 672.095 0 1034.06 667.904 0 494.025 836.976 0 598.528 791.483 0 665.952 763.405 0 833.26 716.291 0 866.391 716.517 0 984.653 723.571 0 1073.01 742.026 0 1118.77 765.451 0 1144.09 780.325 0 939.604 711.337 0 939.404 713.429 0 939.277 715.523 0 1027.18 729.246 0 1010.1 698.408 0 1006.94 704.869 0 1012.1 691.499 0 974.515 643.738 0 755.893 713.602 0 777.299 707.16 0 863.051 702.634 0 887.552 703.376 0 915.6 705.942 0 994.416 715.592 0 1051.21 722.497 0 1111.65 748.213 0 874.681 588.008 0 910.715 638.352 0 962.842 689.977 0 1009.09 713.7 0 1081.75 720.844 0 1103.05 737.888 0 1135.22 765.743 0</DataArray>
</Points>
<Verts>
 <DataArray type="Int64" Name="connectivity" format="ascii">0 1 2 3 4 5 6 7 8 9 10 11 12 13 14 15 16 17 18 19 20 21 22 23 24 25 26 27 28 29 30 31 32 33 34 35 36 37 38 39 40 41 42 43 44 45 46 47 48 49 50 51 52 53 54 55 56 57 58 59 60 61 62 63 64 65 66 67 68 69 70 71 72 73 74 75 76 77 78 79 80 81 82 83 84 85 86 87 88 89 90 91 92 93 94 95 96 97 98 99 100 101 102 103</DataArray>
 <DataArray type="Int64" Name="offsets" format="ascii">104</DataArray>
</Verts>
<Lines>
 <DataArray type="Int64" Name="connectivity" format="ascii"/>
 <DataArray type="Int64" Name="offsets" format="ascii"/>
</Lines>
<Stripes>
 <DataArray type="Int64" Name="connectivity" format="ascii"/>
 <DataArray type="Int64" Name="offsets" format="ascii"/>
</Stripes>
<Polys>
 <DataArray type="Int64" Name="connectivity" format="ascii"/>
 <DataArray type="Int64" Name="offsets" format="ascii"/>
</Polys>
</Piece>
</PolyData>
</VTKFile>