<?xml version="1.0" encoding="UTF-8" ?>
<VTKFile type="PolyData" version="0.1" order="LittleEndian">
<PolyData>
 <Piece NumberOfPoints="158" NumberOfVerts="1" NumberOfLines="0" NumberOfStrips="0" NumberOfPolys="0">
<PointData>
 <DataArray type="Float64" Name="speed" format="ascii">0.0567401 4.13419e-15 2.74877e-14 2.88629e-10 2.83263e-08 4.29969e-07 1.95913e-05 0.00101587 0.0165525 12.6141 2.67116 0.379796 8.03054e-06 0.401369 0.866964 0.000739493 0.723221 1.79755 13.5759 3.66918 7.03182 2.02693 10.823 4.08694 2.85944 0.199035 0.692299 13.646 0.951355 0.204027 10.5983 0.59272 0.0592568 0.357704 0.00366562 0.155872 0.0125515 0.245728 1.12305 0.0023801 3.38938e-15 1.61838 2.34884e-15 2.58832e-15 1.2949 0.370076 0.454974 0.939919 1.48262e-13 1.60249 1.51042e-11 8.9302e-12 0.743345 1.2469 1.3643 1.47102e-09 1.53055 1.54391e-08 0.657469 0.286675 0.0998063 7.61873e-08 0.63093 0.376137 3.34437e-07 0.742311 0.409879 0.674212 9.08589e-06 5.59701e-06 0.804944 1.12321 0.633071 0.000231556 0.703324 0.00031933 0.000928727 0.960258 0.992127 0.525985 0.39616 0.00586761 1.13663 0.00809607 0.697524 0.0684803 0.741057 1.6541 0.252303 5.4804 12.5439 12.4256 13.3839 9.75952 8.48924 1.05343 0.11231 6.11174 5.40829 5.11214 0.990696 1.78328 1.3981 2.05357 12.7098 6.3541 7.61517 7.7852 4.00292 12.9878 13.8792 13.0964 13.8378 2.9023 13.5094 13.8153 13.6853 12.7983 13.1934 13.1701 11.6517 5.27728 1.53483 7.05049e-11 9.35992e-08 0.000373121 0.000145719 0.0584294 7.14355 5.81183 13.6436 9.81128 7.57329 4.72788 1.16204e-14 12.9667 3.76425 3.51798 0.0349032 0.724636 3.37289 1.08566 0.62891 0.368758 11.8586 2.07117 12.2517 2.91899e-05 9.25434 9.31321 8.00378 8.00584 4.09073 5.61718 4.29123 2.96212 12.3897 6.34141</DataArray>
</PointData>
<CellData/>
<Points>
 <DataArray type="Float64" Name="Points" NumberOfComponents="3" format="ascii">815.077 692.084 0 787.793 694.391 0 767.877 699.275 0 741.95 707.927 0 722.682 714.913 0 703.858 723.047 0 685.083 731.078 0 660.054 741.745 0 641.254 749.757 0 590.519 772.63 0 898.385 690.555 0 888.759 690.211 0 1044.4 679.306 0 881.549 689.992 0 874.07 689.766 0 1042.87 682.236 0 1030.71 675.873 0 866.056 689.523 0 1010.86 664.326 0 1022.74 671.705 0 930.12 683.989 0 857.185 692.632 0 994.167 652.926 0 916.272 690.459 0 846.765 692.387 0 932.485 679.353 0 836.308 692.14 0 975.665 655.5 0 904.367 693.749 0 828.627 691.959 0 950.225 674.705 0 896.233 693.74 0 822.03 691.973 0 888.781 693.514 0 881.622 693.298 0 874.765 693.09 0 808.185 692.216 0 867.448 692.868 0 860.649 694.368 0 801.37 692.88 0 794.564 693.543 0 852.707 695.821 0 781.154 696.019 0 774.515 697.647 0 844.085 695.62 0 835.824 695.428 0 828.273 695.252 0 820.745 695.295 0 761.348 701.277 0 812.745 695.424 0 754.879 703.485 0 748.414 705.706 0 804.368 695.905 0 796.014 696.717 0 787.152 697.943 0 735.486 710.148 0 778.449 700.078 0 729.022 712.37 0 769.854 702.187 0 762.403 704.404 0 755.694 706.692 0 716.408 717.625 0 749.104 708.957 0 741.875 711.441 0 710.133 720.336 0 734.861 713.852 0 727.71 716.335 0 720.432 719.481 0 697.597 725.745 0 691.34 728.411 0 713.3 722.562 0 706.351 725.565 0 698.747 728.838 0 678.826 733.744 0 691.384 731.976 0 672.569 736.411 0 666.312 739.078 0 677.158 738.04 0 684.373 734.964 0 669.996 741.092 0 663.016 744.067 0 653.792 744.414 0 656.117 747.007 0 647.529 747.083 0 648.757 750.144 0 634.901 752.465 0 641.293 753.325 0 634.233 756.334 0 628.503 755.192 0 621.483 758.308 0 601.763 771.07 0 559.689 789.864 0 511.686 806.313 0 469.608 824.217 0 452.044 835.271 0 433.368 843.215 0 1036.84 679.08 0 975.542 651.92 0 962.755 660.534 0 952.482 668.967 0 940.515 675.971 0 924.521 682.823 0 916.447 686.786 0 907.622 689.765 0 719.856 708.152 0 465.823 819.842 0 1025.87 664.352 0 996.612 640.933 0 987.401 639.097 0 907.721 659.504 0 593.499 762.816 0 829.16 716.369 0 1227.77 801.521 0 891.993 540.937 0 460.049 851.766 0 653.423 768.258 0 700.713 749.941 0 849.435 716.263 0 950.603 719.027 0 977.553 722.623 0 1046.33 734.18 0 1119.59 765.932 0 1143.89 780.203 0 940.45 689.048 0 941.122 691.037 0 941.276 693.088 0 941.087 695.18 0 939.604 711.342 0 1104.98 757.351 0 1009.01 720.308 0 888.038 703.391 0 917.665 706.049 0 937.086 707.062 0 953.195 707.809 0 978.155 638.228 0 960.039 634.165 0 965.114 708.315 0 1033.57 721.68 0 1047.51 722.328 0 1054.44 722.644 0 1062.56 723.014 0 1071.48 722.761 0 1077.43 725.832 0 1083.33 730.7 0 1100.17 741.241 0 1136.97 767.039 0 375.677 766.849 0 955.063 684.553 0 1010.27 713.77 0 1014.92 710.74 0 1030.56 714.941 0 1033.56 711.772 0 1048.93 715.789 0 1049.08 712.489 0 1060.06 716.296 0 1062.59 713.105 0 1078.79 718.668 0 1127.95 756.223 0</DataArray>
</Points>
<Verts>
 <DataArray type="Int64" Name="connectivity" format="ascii">0 1 2 3 4 5 6 7 8 9 10 11 12 13 14 15 16 17 18 19 20 21 22 23 24 25 26 27 28 29 30 31 32 33 34 35 36 37 38 39 40 41 42 43 44 45 46 47 48 49 50 51 52 53 54 55 56 57 58 59 60 61 62 63 64 65 66 67 68 69 70 71 72 73 74 75 76 77 78 79 80 81 82 83 84 85 86 87 88 89 90 91 92 93 94 95 96 97 98 99 100 101 102 103 104 105 106 107 108 109 110 111 112 113 114 115 116 117 118 119 120 121 122 123 124 125 126 127 128 129 130 131 132 133 134 135 136 137 138 139 140 141 142 143 144 145 146 147 148 149 150 151 152 153 154 155 156 157</DataArray>
 <DataArray type="Int64" Name="offsets" format="ascii">158</DataArray>
</Verts>
<Lines>
 <DataArray type="Int64" Name="connectivity" format="ascii"/>
 <DataArray type="Int64" Name="offsets" format="ascii"/>
</Lines>
<Stripes>
 <DataArray type="Int64" Name="connectivity" format="ascii"/>
 <DataArray type="Int64" Name="offsets" format="ascii"/>
</Stripes>
<Polys>
 <DataArray type="Int64" Name="connectivity" format="ascii"/>
 <DataArray type="Int64" Name="offsets" format="ascii"/>
</Polys>
</Piece>
</PolyData>
</VTKFile>