<?xml version="1.0" encoding="UTF-8" ?>
<VTKFile type="PolyData" version="0.1" order="LittleEndian">
<PolyData>
 <Piece NumberOfPoints="26" NumberOfVerts="1" NumberOfLines="0" NumberOfStrips="0" NumberOfPolys="0">
<PointData>
 <DataArray type="Float64" Name="speed" format="ascii">12.4381 3.205 13.8096 13.2657 12.5779 12.6344 13.2454 10.6368 4.64072 13.1274 9.50082 13.1508 12.2292 12.8445 6.74146 2.53552 12.3247 0.000118343 0.0176557 1.75753e-07 0.0902553 7.74712 2.68853e-06 7.86136 12.549 3.524</DataArray>
</PointData>
<CellData/>
<Points>
 <DataArray type="Float64" Name="Points" NumberOfComponents="3" format="ascii">649.163 746.387 0 435.997 838.517 0 644.981 751.753 0 604.558 766.136 0 576.869 782.396 0 537.12 795.631 0 502 814.021 0 465.393 826.01 0 440.014 840.388 0 576.043 770.367 0 518.626 795.991 0 980.089 632.626 0 947.616 607.636 0 1006.31 726.46 0 1102.49 755.892 0 1137.61 776.518 0 1039.61 732.219 0 974.515 643.738 0 978.148 638.223 0 1047.46 722.326 0 1054.27 722.636 0 1119.48 754.036 0 1047.76 715.736 0 1056.62 712.833 0 1088.24 726.191 0 1134.25 765.021 0</DataArray>
</Points>
<Verts>
 <DataArray type="Int64" Name="connectivity" format="ascii">0 1 2 3 4 5 6 7 8 9 10 11 12 13 14 15 16 17 18 19 20 21 22 23 24 25</DataArray>
 <DataArray type="Int64" Name="offsets" format="ascii">26</DataArray>
</Verts>
<Lines>
 <DataArray type="Int64" Name="connectivity" format="ascii"/>
 <DataArray type="Int64" Name="offsets" format="ascii"/>
</Lines>
<Stripes>
 <DataArray type="Int64" Name="connectivity" format="ascii"/>
 <DataArray type="Int64" Name="offsets" format="ascii"/>
</Stripes>
<Polys>
 <DataArray type="Int64" Name="connectivity" format="ascii"/>
 <DataArray type="Int64" Name="offsets" format="ascii"/>
</Polys>
</Piece>
</PolyData>
</VTKFile>