<?xml version="1.0" encoding="UTF-8" ?>
<VTKFile type="PolyData" version="0.1" order="LittleEndian">
<PolyData>
 <Piece NumberOfPoints="170" NumberOfVerts="1" NumberOfLines="0" NumberOfStrips="0" NumberOfPolys="0">
<PointData>
 <DataArray type="Float64" Name="speed" format="ascii">1.40723 0.00443111 0.304962 0.885368 3.03316 1.31224 1.81091 1.96308 3.16273 0.157303 0.011911 7.46437 0 1.94648e-16 12.9344 1.07036e-15 1.44195e-14 13.8012 12.9874 3.07365e-13 13.0953 13.4757 13.1803 1.96399e-11 12.9535 13.1975 1.10671e-09 13.7146 4.87265e-09 12.4844 12.6091 1.00845e-08 12.4327 13.3457 1.17644e-06 13.0375 0 1.29427e-08 1.78176e-06 1.33829e-08 7.57964e-06 9.61345e-06 7.98035e-05 0.00170262 0.00053233 0.00190273 4.60978 1.18264 0.00232233 0.0327386 0.00623939 0.186727 0.0131061 0.0242615 0.631938 2.70479 1.197 0.370854 0.117985 0.184782 1.34549e-06 2.40086e-05 4.98007e-05 0.769689 3.65611e-05 0.00279491 0.881604 0.0161238 0.0518638 0.192867 3.36187 3.42196 0.330292 0.294501 1.23716 2.46233 0.77328 1.05617 0.811805 1.13447 3.4609 10.3352 8.11075 0.922897 6.5655 1.42237 5.3156 2.79535 2.37401 0.984334 2.24867 5.04112 0.37764 0.263395 0.981673 0.698113 0.590919 1.2531 1.54787 0.193272 1.26323 0.682188 1.06597 0.0975665 1.14206 0.42653 0.7878 4.01419 12.6651 12.8909 11.6228 1.03465 1.25128 13.5129 13.4772 12.9102 13.2839 13.4939 8.45726e-16 0 0 10.0111 13.1897 8.32222 9.24752e-16 3.71121e-15 2.79739e-14 7.33545e-05 4.26673 13.8066 8.52694 1.03064e-09 4.61565 12.9844 12.7365 13.8274 12.9404 11.1956 13.8388 12.5414 5.29708 1.35535 8.63251 0 2.69597e-12 7.54419e-05 7.96449 3.1449 1.4316e-07 0.000135569 12.6951 9.1446 13.347 12.71 13.1973 13.5811 12.8134 13.7198 13.5858 11.1782 4.86267 1.47864 0.372483 13.4777 13.3481 10.2352 7.17664 13.215 12.3458 2.73241</DataArray>
</PointData>
<CellData/>
<Points>
 <DataArray type="Float64" Name="Points" NumberOfComponents="3" format="ascii">920.837 653.97 0 821.834 691.976 0 794.388 693.561 0 772.924 698.037 0 748.701 705.607 0 716.377 717.638 0 683.736 731.652 0 659.254 742.086 0 621.413 758.34 0 598.341 769.012 0 579.331 777.701 0 446.723 833.954 0 920.412 684.747 0 914.506 687.641 0 1445.44 964.889 0 908.226 689.612 0 901.749 690.696 0 1447.09 970.266 0 1425.56 949.419 0 895.183 690.405 0 1373.02 909.935 0 1402.03 933.594 0 1272.65 840.973 0 888.384 690.199 0 1362.04 897.852 0 1320.89 873.456 0 881.585 689.993 0 1206.76 801.139 0 874.786 689.788 0 1349.04 892.457 0 1269.01 834.548 0 867.987 689.582 0 1388.93 917.795 0 1301.99 860.732 0 861.465 690.306 0 1253.38 828.419 0 934.042 682.28 0 935.362 685.3 0 855.398 692.59 0 927.807 684.997 0 921.617 687.816 0 848.599 692.43 0 841.8 692.27 0 929.127 688.017 0 835.001 692.109 0 828.202 691.949 0 914.724 691.133 0 902.37 693.977 0 894.166 693.677 0 887.326 693.47 0 814.994 692.085 0 880.453 693.262 0 808.145 692.22 0 801.294 692.887 0 873.401 693.049 0 865.506 692.81 0 856.738 695.914 0 787.162 694.545 0 848.644 695.726 0 780.134 696.269 0 841.725 695.565 0 834.924 695.407 0 828.123 695.249 0 764.837 700.087 0 821.916 695.276 0 815.149 695.385 0 757.137 702.714 0 808.373 695.516 0 801.621 696.172 0 794.686 696.847 0 739.304 708.836 0 727.061 713.044 0 787.691 697.811 0 780.52 699.57 0 773.229 701.359 0 707.747 721.367 0 765.215 703.445 0 698.439 725.386 0 691.05 728.535 0 746.943 709.699 0 757.916 705.934 0 735.796 713.53 0 718.736 720.213 0 674.569 735.559 0 704.244 726.476 0 666.996 738.786 0 689.39 732.826 0 651.102 745.56 0 677.568 737.865 0 667.912 741.98 0 642.175 749.365 0 632.398 753.532 0 660.407 745.179 0 653.64 748.062 0 646.962 750.909 0 611.872 762.754 0 639.732 753.99 0 631.744 757.395 0 623.67 760.935 0 591.935 771.975 0 616.027 764.471 0 608.448 767.977 0 600.561 771.626 0 585.579 774.915 0 592.989 775.129 0 585.302 778.659 0 578.226 781.794 0 572.008 780.944 0 549.081 794.254 0 523.726 804.779 0 476.801 821.156 0 433.351 843.223 0 432.26 840.107 0 1419.96 949.027 0 1408.33 934.703 0 1313.48 864.493 0 1339.54 882.04 0 1230.85 811.415 0 971.406 654.043 0 932.722 679.25 0 926.487 681.967 0 878.584 610.282 0 697.645 717.761 0 481.439 812.788 0 1047.56 676.366 0 1046.92 674.363 0 1045.66 672.931 0 1041.79 671.255 0 880.006 520.018 0 775.416 692.449 0 496.719 805.886 0 1043.73 672.095 0 905.135 556.696 0 466.722 848.862 0 607.127 787.739 0 673.26 760.574 0 767.458 724.088 0 897.721 716.987 0 961.49 720.48 0 1032.49 730.363 0 1123.14 768.021 0 1143.56 780.013 0 870.189 595.017 0 939.604 711.337 0 939.404 713.429 0 939.277 715.522 0 1105.92 757.903 0 1120.63 733.032 0 1006.94 704.869 0 1010.1 698.408 0 912.131 577.353 0 1119.22 753.845 0 710.353 731.021 0 732.554 721.626 0 795.682 703.38 0 819.227 701.923 0 889.19 703.426 0 914.435 705.881 0 978.1 708.867 0 1000.02 718.466 0 1040.1 721.984 0 1053.15 722.585 0 604.891 765.982 0 874.045 586.671 0 902.933 629.045 0 979.949 700.379 0 1008.55 713.669 0 1073.61 716.445 0 1101.99 737.221 0 1135.76 766.141 0</DataArray>
</Points>
<Verts>
 <DataArray type="Int64" Name="connectivity" format="ascii">0 1 2 3 4 5 6 7 8 9 10 11 12 13 14 15 16 17 18 19 20 21 22 23 24 25 26 27 28 29 30 31 32 33 34 35 36 37 38 39 40 41 42 43 44 45 46 47 48 49 50 51 52 53 54 55 56 57 58 59 60 61 62 63 64 65 66 67 68 69 70 71 72 73 74 75 76 77 78 79 80 81 82 83 84 85 86 87 88 89 90 91 92 93 94 95 96 97 98 99 100 101 102 103 104 105 106 107 108 109 110 111 112 113 114 115 116 117 118 119 120 121 122 123 124 125 126 127 128 129 130 131 132 133 134 135 136 137 138 139 140 141 142 143 144 145 146 147 148 149 150 151 152 153 154 155 156 157 158 159 160 161 162 163 164 165 166 167 168 169</DataArray>
 <DataArray type="Int64" Name="offsets" format="ascii">170</DataArray>
</Verts>
<Lines>
 <DataArray type="Int64" Name="connectivity" format="ascii"/>
 <DataArray type="Int64" Name="offsets" format="ascii"/>
</Lines>
<Stripes>
 <DataArray type="Int64" Name="connectivity" format="ascii"/>
 <DataArray type="Int64" Name="offsets" format="ascii"/>
</Stripes>
<Polys>
 <DataArray type="Int64" Name="connectivity" format="ascii"/>
 <DataArray type="Int64" Name="offsets" format="ascii"/>
</Polys>
</Piece>
</PolyData>
</VTKFile>